2
Lattice="3.263994 0.0 0.0 0.0 3.263994 0.0 0.0 0.0 3.263994" Properties=species:S:1:pos:R:3:forces:R:3 energy=-4.3043613 stress="-8.154410587689436e-05 -0.0 0.0 -0.0 -8.154410587689436e-05 0.0 0.0 0.0 -8.154410587689436e-05" free_energy=-4.31253445 pbc="T T T"
Al       0.00000000       0.00000000       0.00000000      -0.00000000      -0.00000000      -0.00000000
Al       1.63199700       1.63199700       1.63199700       0.00000000       0.00000000       0.00000000
2
Lattice="3.31295391 0.0 0.0 0.0 3.263994 0.0 0.0 0.0 3.263994" Properties=species:S:1:pos:R:3:forces:R:3 energy=-4.30208422 stress="0.0022819987650140603 0.0 -0.0 0.0 0.00671383335666759 -0.0 -0.0 -0.0 0.00671383335666759" free_energy=-4.31036384 pbc="T T T"
Al       0.00000000       0.00000000       0.00000000      -0.00000000       0.00000000      -0.00000000
Al       1.65647696       1.63199700       1.63199700       0.00000000      -0.00000000       0.00000000
2
Lattice="3.21503409 0.0 0.0 0.0 3.263994 0.0 0.0 0.0 3.263994" Properties=species:S:1:pos:R:3:forces:R:3 energy=-4.30529885 stress="-0.003287662185065384 -0.0 -0.0 -0.0 -0.00723805860068633 -0.0 -0.0 -0.0 -0.00723805860068633" free_energy=-4.31345162 pbc="T T T"
Al       0.00000000       0.00000000       0.00000000      -0.00000000       0.00000000      -0.00000000
Al       1.60751705       1.63199700       1.63199700       0.00000000      -0.00000000       0.00000000
2
Lattice="3.263994 0.0 0.0 0.0 3.31295391 0.0 0.0 0.0 3.263994" Properties=species:S:1:pos:R:3:forces:R:3 energy=-4.30208431 stress="0.006713829380826277 0.0 -0.0 0.0 0.0022820015237610936 0.0 -0.0 0.0 0.006713829380826277" free_energy=-4.31036394 pbc="T T T"
Al       0.00000000       0.00000000       0.00000000      -0.00000000       0.00000000       0.00000000
Al       1.63199700       1.65647696       1.63199700       0.00000000       0.00000000      -0.00000000
2
Lattice="3.263994 0.0 0.0 0.0 3.21503409 0.0 0.0 0.0 3.263994" Properties=species:S:1:pos:R:3:forces:R:3 energy=-4.30529885 stress="-0.007238058756724059 -0.0 -0.0 -0.0 -0.0032876625782804585 -0.0 -0.0 -0.0 -0.007238058756724059" free_energy=-4.31345162 pbc="T T T"
Al       0.00000000       0.00000000       0.00000000      -0.00000000      -0.00000000      -0.00000000
Al       1.63199700       1.60751705       1.63199700       0.00000000       0.00000000       0.00000000
2
Lattice="3.263994 0.0 0.0 0.0 3.263994 0.0 0.0 0.0 3.31295391" Properties=species:S:1:pos:R:3:forces:R:3 energy=-4.3020843 stress="0.006713829655452678 -0.0 0.0 -0.0 0.006713829655452678 -0.0 0.0 -0.0 0.0022819990833310255" free_energy=-4.31036392 pbc="T T T"
Al       0.00000000       0.00000000       0.00000000       0.00000000      -0.00000000      -0.00000000
Al       1.63199700       1.63199700       1.65647696       0.00000000       0.00000000       0.00000000
2
Lattice="3.263994 0.0 0.0 0.0 3.263994 0.0 0.0 0.0 3.21503409" Properties=species:S:1:pos:R:3:forces:R:3 energy=-4.30529883 stress="-0.007238058351025965 -0.0 0.0 -0.0 -0.007238058351025965 0.0 0.0 0.0 -0.003287660574756029" free_energy=-4.3134516 pbc="T T T"
Al       0.00000000       0.00000000       0.00000000       0.00000000      -0.00000000      -0.00000000
Al       1.63199700       1.63199700       1.60751705       0.00000000       0.00000000       0.00000000
2
Lattice="3.263994 0.04895991 0.0 0.0 3.263994 0.0 0.0 0.0 3.263994" Properties=species:S:1:pos:R:3:forces:R:3 energy=-4.30340114 stress="-0.0003053820057339836 0.003563738919838319 -0.0 0.003563738919838319 -0.0001668584952054245 -0.0 -0.0 -0.0 -3.0342821989079923e-05" free_energy=-4.31163481 pbc="T T T"
Al       0.00000000       0.00000000       0.00000000       0.00000000       0.00000000       0.00000000
Al       1.63199700       1.65647696       1.63199700       0.00000000      -0.00000000      -0.00000000
2
Lattice="3.263994 -0.04895991 0.0 0.0 3.263994 0.0 0.0 0.0 3.263994" Properties=species:S:1:pos:R:3:forces:R:3 energy=-4.30340113 stress="-0.00030538068253404887 -0.0035637298696500866 -0.0 -0.0035637298696500866 -0.0001668575028054735 -0.0 -0.0 -0.0 -3.0335538147930017e-05" free_energy=-4.3116348 pbc="T T T"
Al       0.00000000       0.00000000       0.00000000      -0.00000000      -0.00000000       0.00000000
Al       1.63199700       1.60751704       1.63199700       0.00000000       0.00000000      -0.00000000
2
Lattice="3.263994 0.0 0.0 0.0 3.263994 0.04895991 0.0 0.0 3.263994" Properties=species:S:1:pos:R:3:forces:R:3 energy=-4.3034011 stress="-3.0339314260951177e-05 -0.0 -0.0 -0.0 -0.00030537929067751384 0.003563736735310125 -0.0 0.003563736735310125 -0.0001668559861187559" free_energy=-4.31163478 pbc="T T T"
Al       0.00000000       0.00000000       0.00000000      -0.00000000       0.00000000       0.00000000
Al       1.63199700       1.63199700       1.65647696       0.00000000      -0.00000000      -0.00000000
2
Lattice="3.263994 0.0 0.0 0.0 3.263994 -0.04895991 0.0 0.0 3.263994" Properties=species:S:1:pos:R:3:forces:R:3 energy=-4.30340114 stress="-3.033915822322303e-05 -0.0 -0.0 -0.0 -0.0003053789723605484 -0.003563747302185075 -0.0 -0.003563747302185075 -0.00016685523089615163" free_energy=-4.31163481 pbc="T T T"
Al       0.00000000       0.00000000       0.00000000       0.00000000       0.00000000       0.00000000
Al       1.63199700       1.63199700       1.60751704       0.00000000       0.00000000      -0.00000000
2
Lattice="3.263994 0.0 0.0 0.0 3.263994 0.0 0.04895991 0.0 3.263994" Properties=species:S:1:pos:R:3:forces:R:3 energy=-4.30340111 stress="-0.00016685438829241967 -0.0 0.0035637568204864925 -0.0 -3.0332130283947283e-05 -0.0 0.0035637568204864925 -0.0 -0.00030537314903253393" free_energy=-4.31163478 pbc="T T T"
Al       0.00000000       0.00000000       0.00000000       0.00000000       0.00000000       0.00000000
Al       1.65647696       1.63199700       1.63199700      -0.00000000       0.00000000      -0.00000000
2
Lattice="3.263994 0.0 0.0 0.0 3.263994 0.0 -0.04895991 0.0 3.263994" Properties=species:S:1:pos:R:3:forces:R:3 energy=-4.30340113 stress="-0.0001668567600658875 -0.0 -0.003563734812925314 -0.0 -3.033744180821341e-05 -0.0 -0.003563734812925314 -0.0 -0.0003053803018019922" free_energy=-4.3116348 pbc="T T T"
Al       0.00000000       0.00000000       0.00000000      -0.00000000       0.00000000      -0.00000000
Al       1.60751704       1.63199700       1.63199700       0.00000000       0.00000000       0.00000000
2
Lattice="3.263994 0.0 0.0 0.0 3.263994 0.0 0.0 0.0 3.263994" Properties=species:S:1:pos:R:3:forces:R:3 energy=-4.30403955 stress="-8.313066004763912e-05 0.0 -0.0 0.0 -0.00013713380731413555 -0.0 -0.0 -0.0 -0.00013713380731413555" free_energy=-4.31221461 pbc="T T T"
Al       0.01500001       0.00000000       0.00000000      -0.04517751      -0.00000000       0.00000000
Al       1.63199700       1.63199700       1.63199700       0.04517751       0.00000000      -0.00000000
2
Lattice="3.263994 0.0 0.0 0.0 3.263994 0.0 0.0 0.0 3.263994" Properties=species:S:1:pos:R:3:forces:R:3 energy=-4.30403959 stress="-8.315719894444237e-05 -0.0 -0.0 -0.0 -0.0001371457348380751 -0.0 -0.0 -0.0 -0.0001371457348380751" free_energy=-4.31221466 pbc="T T T"
Al      -0.01500001       0.00000000       0.00000000       0.04517426      -0.00000000       0.00000000
Al       1.63199700       1.63199700       1.63199700      -0.04517426       0.00000000      -0.00000000
