4
Lattice="1.942774 -3.364984 0.0 1.942774 3.364984 0.0 0.0 0.0 6.381572" Properties=species:S:1:pos:R:3:forces:R:3 energy=-15.39936047 stress="-0.0024780531050425376 -0.0 -0.0 -0.0 -0.0024780541723405983 -0.0 -0.0 -0.0 -0.003080332446453834" free_energy=-15.39936047 pbc="T T T"
Al       1.94277400       1.12166358       0.00040842      -0.00000000       0.00000000       0.01623244
Al       1.94277400      -1.12166358       3.19119442      -0.00000000      -0.00000000       0.01623244
P        1.94277400       1.12166358       2.39268108       0.00000000      -0.00000000      -0.01623244
P        1.94277400      -1.12166358       5.58346708       0.00000000       0.00000000      -0.01623244
4
Lattice="1.9476187 -3.37337527 -0.0 1.9476187 3.37337527 0.0 0.0 0.0 6.4013535" Properties=species:S:1:pos:R:3:forces:R:3 energy=-15.39695134 stress="0.0016792514664560507 -0.0 -0.0 -0.0 0.0016792521904711094 0.0 -0.0 0.0 0.0012683168781887147" free_energy=-15.39695134 pbc="T T T"
Al       1.94761870       1.12446067       0.00119520       0.00000000      -0.00000000       0.00493082
Al       1.94761870      -1.12446067       3.20187195       0.00000000       0.00000000       0.00493082
P        1.94761870       1.12446067       2.39931237      -0.00000000       0.00000000      -0.00493082
P        1.94761870      -1.12446067       5.59998912      -0.00000000      -0.00000000      -0.00493082
4
Lattice="1.94591427 -3.37042312 -0.0 1.94591427 3.37042312 0.0 0.0 0.0 6.39439412" Properties=species:S:1:pos:R:3:forces:R:3 energy=-15.39812166 stress="0.0002344000062942374 -0.0 -0.0 -0.0 0.00023440010615838344 -0.0 -0.0 -0.0 -0.0002458428396011207" free_energy=-15.39812166 pbc="T T T"
Al       1.94591427       1.12347662       0.00091868       0.00000000      -0.00000000       0.00881973
Al       1.94591427      -1.12347662       3.19811574       0.00000000      -0.00000000       0.00881973
P        1.94591427       1.12347662       2.39697911       0.00000000      -0.00000000      -0.00881973
P        1.94591427      -1.12347662       5.59417617      -0.00000000       0.00000000      -0.00881973
4
Lattice="1.94590343 -3.37040434 -0.0 1.94590343 3.37040434 0.0 0.0 0.0 6.39434985" Properties=species:S:1:pos:R:3:forces:R:3 energy=-15.39812775 stress="0.00022527639918985893 -0.0 -0.0 -0.0 0.0002252764928124958 -0.0 -0.0 -0.0 -0.0002553909879147327" free_energy=-15.39812775 pbc="T T T"
Al       1.94590343       1.12347036       0.00091695      -0.00000000      -0.00000000       0.00884474
Al       1.94590343      -1.12347036       3.19809187      -0.00000000       0.00000000       0.00884474
P        1.94590343       1.12347036       2.39696424       0.00000000       0.00000000      -0.00884474
P        1.94590343      -1.12347036       5.59413917      -0.00000000      -0.00000000      -0.00884474
4
Lattice="1.94556188 -3.36981276 -0.0 1.94556188 3.36981276 0.0 0.0 -0.0 6.3961728" Properties=species:S:1:pos:R:3:forces:R:3 energy=-15.39817416 stress="0.00011055189402998434 -0.0 -0.0 -0.0 0.00011055193772054823 -0.0 -0.0 -0.0 -0.00011588075720846272" free_energy=-15.39817416 pbc="T T T"
Al       1.94556188       1.12327317       0.00132516      -0.00000000       0.00000000       0.00520250
Al       1.94556188      -1.12327317       3.19941156      -0.00000000      -0.00000000       0.00520250
P        1.94556188       1.12327317       2.39723964       0.00000000       0.00000000      -0.00520250
P        1.94556188      -1.12327317       5.59532604      -0.00000000      -0.00000000      -0.00520250
4
Lattice="1.94553412 -3.36976467 -0.0 1.94553412 3.36976467 0.0 0.0 -0.0 6.39632098" Properties=species:S:1:pos:R:3:forces:R:3 energy=-15.3981771 stress="0.00010125257596069399 -0.0 -0.0 -0.0 0.00010125261965125788 -0.0 -0.0 -0.0 -0.00010450706733967593" free_energy=-15.3981771 pbc="T T T"
Al       1.94553412       1.12325714       0.00135839      -0.00000000      -0.00000000       0.00489800
Al       1.94553412      -1.12325714       3.19951888      -0.00000000       0.00000000       0.00489800
P        1.94553412       1.12325714       2.39726198       0.00000000       0.00000000      -0.00489800
P        1.94553412      -1.12325714       5.59542247      -0.00000000      -0.00000000      -0.00489800
4
Lattice="1.94547859 -3.3696685 -0.0 1.94547859 3.3696685 0.0 0.0 -0.0 6.39661734" Properties=species:S:1:pos:R:3:forces:R:3 energy=-15.39818284 stress="8.20970037213016e-05 -0.0 -0.0 -0.0 8.209704117035635e-05 -0.0 -0.0 -0.0 -8.147440694448561e-05" free_energy=-15.39818284 pbc="T T T"
Al       1.94547859       1.12322508       0.00142472      -0.00000000      -0.00000000       0.00431037
Al       1.94547859      -1.12322508       3.19973339      -0.00000000       0.00000000       0.00431037
P        1.94547859       1.12322508       2.39730678       0.00000000      -0.00000000      -0.00431037
P        1.94547859      -1.12322508       5.59561545      -0.00000000       0.00000000      -0.00431037
4
Lattice="1.94536754 -3.36947615 -0.0 1.94536754 3.36947615 0.0 0.0 -0.0 6.39721006" Properties=species:S:1:pos:R:3:forces:R:3 energy=-15.39819472 stress="4.53311632794486e-05 -0.0 -0.0 -0.0 4.5331182003975974e-05 -0.0 -0.0 -0.0 -3.611938237564876e-05" free_energy=-15.39819472 pbc="T T T"
Al       1.94536754       1.12316096       0.00155746       0.00000000      -0.00000000       0.00312387
Al       1.94536754      -1.12316096       3.20016249       0.00000000      -0.00000000       0.00312387
P        1.94536754       1.12316096       2.39739631       0.00000000       0.00000000      -0.00312387
P        1.94536754      -1.12316096       5.59600134      -0.00000000      -0.00000000      -0.00312387
4
Lattice="1.94514543 -3.36909145 -0.0 1.94514543 3.36909145 0.0 0.0 -0.0 6.39839551" Properties=species:S:1:pos:R:3:forces:R:3 energy=-15.39821311 stress="-2.9121701936146494e-05 -0.0 -0.0 -0.0 -2.912171441916474e-05 -0.0 -0.0 -0.0 5.502462640852936e-05" free_energy=-15.39821311 pbc="T T T"
Al       1.94514543       1.12303273       0.00182303       0.00000000       0.00000000       0.00074736
Al       1.94514543      -1.12303273       3.20102079       0.00000000      -0.00000000       0.00074736
P        1.94514543       1.12303273       2.39757529      -0.00000000      -0.00000000      -0.00074736
P        1.94514543      -1.12303273       5.59677304       0.00000000       0.00000000      -0.00074736
4
Lattice="1.94517111 -3.36913592 -0.0 1.94517111 3.36913592 0.0 0.0 -0.0 6.39825846" Properties=species:S:1:pos:R:3:forces:R:3 energy=-15.39821127 stress="-2.0503819350201822e-05 -0.0 -0.0 -0.0 -2.050383183322007e-05 -0.0 -0.0 -0.0 4.4636083857153735e-05" free_energy=-15.39821127 pbc="T T T"
Al       1.94517111       1.12304755       0.00179234       0.00000000      -0.00000000       0.00102737
Al       1.94517111      -1.12304755       3.20092157       0.00000000      -0.00000000       0.00102737
P        1.94517111       1.12304755       2.39755458      -0.00000000       0.00000000      -0.00102737
P        1.94517111      -1.12304755       5.59668381      -0.00000000      -0.00000000      -0.00102737
4
Lattice="1.94521084 -3.36920474 -0.0 1.94521084 3.36920474 0.0 0.0 -0.0 6.39796246" Properties=species:S:1:pos:R:3:forces:R:3 energy=-15.39821234 stress="1.5709491496282358e-05 -0.0 -0.0 -0.0 1.5709497737791482e-05 -0.0 -0.0 -0.0 -3.502564528246548e-05" free_energy=-15.39821234 pbc="T T T"
Al       1.94521084       1.12307049       0.00185643      -0.00000000      -0.00000000      -0.00076899
Al       1.94521084      -1.12307049       3.20083766      -0.00000000      -0.00000000      -0.00076899
P        1.94521084       1.12307049       2.39737949      -0.00000000      -0.00000000       0.00076899
P        1.94521084      -1.12307049       5.59636072       0.00000000       0.00000000       0.00076899
