4
Lattice="1.945211 -3.369204 0.0 1.945211 3.369204 0.0 0.0 0.0 6.397962" Properties=species:S:1:pos:R:3:forces:R:3 energy=-15.39849099 stress="-6.494783324702475e-05 -0.0 0.0 -0.0 -6.49478207640065e-05 -0.0 0.0 -0.0 -0.00011360071520025018" free_energy=-15.39849099 pbc="T T T"
Al       1.94521100      -1.12307025       6.39610659       0.00000000      -0.00000000       0.00073652
Al       1.94521100       1.12307025       3.19712559      -0.00000000       0.00000000       0.00073652
P        1.94521100      -1.12307025       4.00058166       0.00000000      -0.00000000      -0.00073652
P        1.94521100       1.12307025       0.80160066      -0.00000000      -0.00000000      -0.00073652
4
Lattice="1.97438916 -3.369204 0.0 1.97438916 3.369204 0.0 0.0 0.0 6.397962" Properties=species:S:1:pos:R:3:forces:R:3 energy=-15.38310638 stress="0.016128376500149717 -0.0 -0.0 -0.0 0.003719540051098966 -0.0 -0.0 -0.0 0.002050420251644706" free_energy=-15.38310638 pbc="T T T"
Al       1.97438916      -1.12307025       6.39610659       0.00000000      -0.08591204       0.06398043
Al       1.97438916       1.12307025       3.19712559       0.00000000       0.08591204       0.06398043
P        1.97438916      -1.12307025       4.00058166       0.00000000      -0.10570274      -0.06398043
P        1.97438916       1.12307025       0.80160066       0.00000000       0.10570274      -0.06398043
4
Lattice="1.91603283 -3.369204 0.0 1.91603283 3.369204 0.0 0.0 0.0 6.397962" Properties=species:S:1:pos:R:3:forces:R:3 energy=-15.39282989 stress="-0.018043326924571737 -0.0 -0.0 -0.0 -0.004318742135024418 -0.0 -0.0 -0.0 -0.002502020518810457" free_energy=-15.39282989 pbc="T T T"
Al       1.91603283      -1.12307025       6.39610659       0.00000000       0.10097519      -0.07355027
Al       1.91603283       1.12307025       3.19712559       0.00000000      -0.10097519      -0.07355027
P        1.91603283      -1.12307025       4.00058166       0.00000000       0.12075050       0.07355027
P        1.91603283       1.12307025       0.80160066       0.00000000      -0.12075050       0.07355027
4
Lattice="1.945211 -3.41974206 0.0 1.945211 3.41974206 0.0 0.0 0.0 6.397962" Properties=species:S:1:pos:R:3:forces:R:3 energy=-15.38312587 stress="0.003756723442259831 -0.0 -0.0 -0.0 0.016090572940159083 -0.0 -0.0 -0.0 0.002052035785142322" free_energy=-15.38312587 pbc="T T T"
Al       1.94521100      -1.13991630       6.39610659       0.00000000       0.08063218       0.06403573
Al       1.94521100       1.13991630       3.19712559       0.00000000      -0.08063218       0.06403573
P        1.94521100      -1.13991630       4.00058166       0.00000000       0.10059082      -0.06403573
P        1.94521100       1.13991630       0.80160066       0.00000000      -0.10059082      -0.06403573
4
Lattice="1.945211 -3.31866594 0.0 1.945211 3.31866594 0.0 0.0 0.0 6.397962" Properties=species:S:1:pos:R:3:forces:R:3 energy=-15.39281884 stress="-0.004273554376658647 -0.0 -0.0 -0.0 -0.018093580722408208 -0.0 -0.0 -0.0 -0.0025034903130699833" free_energy=-15.39281884 pbc="T T T"
Al       1.94521100      -1.10622419       6.39610659       0.00000000      -0.10685916      -0.07362633
Al       1.94521100       1.10622419       3.19712559       0.00000000       0.10685916      -0.07362633
P        1.94521100      -1.10622419       4.00058166       0.00000000      -0.12637466       0.07362633
P        1.94521100       1.10622419       0.80160066       0.00000000       0.12637466       0.07362633
4
Lattice="1.945211 -3.369204 0.0 1.945211 3.369204 0.0 0.0 0.0 6.49393143" Properties=species:S:1:pos:R:3:forces:R:3 energy=-15.38238493 stress="0.002133036942140356 -0.0 -0.0 -0.0 0.002133036586374336 -0.0 -0.0 -0.0 0.01757256435057825" free_energy=-15.38238493 pbc="T T T"
Al       1.94521100      -1.12307025       6.49204819       0.00000000      -0.00000000      -0.10962174
Al       1.94521100       1.12307025       3.24508247       0.00000000      -0.00000000      -0.10962174
P        1.94521100      -1.12307025       4.06059038       0.00000000      -0.00000000       0.10962174
P        1.94521100       1.12307025       0.81362467      -0.00000000       0.00000000       0.10962174
4
Lattice="1.945211 -3.369204 0.0 1.945211 3.369204 0.0 0.0 0.0 6.30199257" Properties=species:S:1:pos:R:3:forces:R:3 energy=-15.39128803 stress="-0.0024120957763510017 -0.0 -0.0 -0.0 -0.0024120953706529085 -0.0 -0.0 -0.0 -0.020338732451188196" free_energy=-15.39128803 pbc="T T T"
Al       1.94521100      -1.12307025       6.30016499      -0.00000000       0.00000000       0.14748340
Al       1.94521100       1.12307025       3.14916871      -0.00000000       0.00000000       0.14748340
P        1.94521100      -1.12307025       3.94057293       0.00000000      -0.00000000      -0.14748340
P        1.94521100       1.12307025       0.78957665      -0.00000000       0.00000000      -0.14748340
4
Lattice="1.945211 -3.34002584 0.0 1.945211 3.39838216 0.0 0.0 0.0 6.397962" Properties=species:S:1:pos:R:3:forces:R:3 energy=-15.39443726 stress="-0.0002386204523500684 0.006525615724425881 -0.0 0.006525615724425881 -9.616130831011063e-05 -0.0 -0.0 -0.0 -0.00011761850569627287" free_energy=-15.39443726 pbc="T T T"
Al       1.94521100      -1.09389209       6.39610659      -0.09311170       0.00131514      -0.00086000
Al       1.94521100       1.15224841       3.19712559       0.09311170      -0.00131514      -0.00086000
P        1.94521100      -1.09389209       4.00058166      -0.11296221       0.00100218       0.00086000
P        1.94521100       1.15224841       0.80160066       0.11296221      -0.00100218       0.00086000
4
Lattice="1.945211 -3.39838216 0.0 1.945211 3.34002584 0.0 0.0 0.0 6.397962" Properties=species:S:1:pos:R:3:forces:R:3 energy=-15.39443718 stress="-0.00023844426078895386 -0.00652628077594777 -0.0 -0.00652628077594777 -9.599547765414504e-05 -0.0 -0.0 -0.0 -0.00011740145097491115" free_energy=-15.39443718 pbc="T T T"
Al       1.94521100      -1.15224841       6.39610659       0.09312007       0.00131507      -0.00086005
Al       1.94521100       1.09389209       3.19712559      -0.09312007      -0.00131507      -0.00086005
P        1.94521100      -1.15224841       4.00058166       0.11296000       0.00100279       0.00086005
P        1.94521100       1.09389209       0.80160066      -0.11296000      -0.00100279       0.00086005
4
Lattice="1.945211 -3.369204 -0.05053806 1.945211 3.369204 0.05053806 0.0 0.0 6.397962" Properties=species:S:1:pos:R:3:forces:R:3 energy=-15.39567753 stress="-8.644105038235246e-05 -0.0 -0.0 -0.0 -9.926212749290419e-05 0.0044756067944740794 -0.0 0.0044756067944740794 -9.522445154880642e-05" free_energy=-15.39567753 pbc="T T T"
Al       1.94521100      -1.12307025       6.37926054       0.00000000       0.07461431       0.00093156
Al       1.94521100       1.12307025       3.21397164       0.00000000       0.07726174       0.00108177
P        1.94521100      -1.12307025       3.98373561       0.00000000      -0.07774187      -0.00102501
P        1.94521100       1.12307025       0.81844671       0.00000000      -0.07413418      -0.00098832
4
Lattice="1.945211 -3.369204 0.05053806 1.945211 3.369204 -0.05053806 0.0 0.0 6.397962" Properties=species:S:1:pos:R:3:forces:R:3 energy=-15.39567752 stress="-8.669795713948293e-05 -0.0 -0.0 -0.0 -9.948812005533417e-05 -0.00447213407497002 -0.0 -0.00447213407497002 -9.548865463010508e-05" free_energy=-15.39567752 pbc="T T T"
Al       1.94521100      -1.12307025       6.41295264       0.00000000      -0.07723249       0.00107693
Al       1.94521100       1.12307025       3.18027954       0.00000000      -0.07458708       0.00093659
P        1.94521100      -1.12307025       4.01742771       0.00000000       0.07410627      -0.00098466
P        1.94521100       1.12307025       0.78475461       0.00000000       0.07771329      -0.00102885
4
Lattice="1.945211 -3.369204 0.0 1.945211 3.369204 0.0 0.09596943 0.0 6.397962" Properties=species:S:1:pos:R:3:forces:R:3 energy=-15.39567935 stress="-7.735669612886665e-05 -0.0 0.004474722029347939 -0.0 -9.807568526467417e-05 -0.0 0.004474722029347939 -0.0 -0.00010458195296616826" free_energy=-15.39567935 pbc="T T T"
Al       2.04115260      -1.12307025       6.39610659       0.07599695       0.00211436      -0.00160581
Al       1.99316788       1.12307025       3.19712559       0.07599695      -0.00211436      -0.00160581
P        2.00521972      -1.12307025       4.00058166      -0.07599695       0.00273744       0.00160581
P        1.95723501       1.12307025       0.80160066      -0.07599695      -0.00273744       0.00160581
4
Lattice="1.945211 -3.369204 0.0 1.945211 3.369204 0.0 -0.09596943 0.0 6.397962" Properties=species:S:1:pos:R:3:forces:R:3 energy=-15.39567964 stress="-7.719216370679924e-05 -0.0 -0.004476762141503844 -0.0 -9.798600102004435e-05 -0.0 -0.004476762141503844 -0.0 -0.00010447840632976986" free_energy=-15.39567964 pbc="T T T"
Al       1.84926940      -1.12307025       6.39610659      -0.07600732       0.00211463      -0.00160587
Al       1.89725412       1.12307025       3.19712559      -0.07600732      -0.00211463      -0.00160587
P        1.88520228      -1.12307025       4.00058166       0.07600732       0.00273723       0.00160587
P        1.93318699       1.12307025       0.80160066       0.07600732      -0.00273723       0.00160587
4
Lattice="1.945211 -3.369204 0.0 1.945211 3.369204 0.0 0.0 0.0 6.397962" Properties=species:S:1:pos:R:3:forces:R:3 energy=-15.39744163 stress="-0.00011228695242736126 0.00111171494258269 -0.00090513844177547 0.00111171494258269 -8.422610107281375e-05 2.1136845688767152e-05 -0.00090513844177547 2.1136845688767152e-05 -0.00011917183007243143" free_energy=-15.39744163 pbc="T T T"
Al       1.96021099      -1.12307025       6.39610659      -0.14240328       0.00254917      -0.00112519
Al       1.94521100       1.12307025       3.19712559      -0.00243002      -0.00003521       0.00066109
P        1.94521100      -1.12307025       4.00058166       0.01000925       0.00005716      -0.00043634
P        1.94521100       1.12307025       0.80160066       0.13482405      -0.00257112       0.00090045
4
Lattice="1.945211 -3.369204 0.0 1.945211 3.369204 0.0 0.0 0.0 6.397962" Properties=species:S:1:pos:R:3:forces:R:3 energy=-15.39744164 stress="-0.00011199453772481362 -0.0011121521665384672 0.000906205196824702 -0.0011121521665384672 -8.40234579960237e-05 2.1102804497994585e-05 0.000906205196824702 2.1102804497994585e-05 -0.00011897776907068947" free_energy=-15.39744164 pbc="T T T"
Al       1.93021101      -1.12307025       6.39610659       0.14235103       0.00254837      -0.00112352
Al       1.94521100       1.12307025       3.19712559       0.00236728      -0.00003472       0.00066119
P        1.94521100      -1.12307025       4.00058166      -0.00994455       0.00005668      -0.00043709
P        1.94521100       1.12307025       0.80160066      -0.13477375      -0.00257033       0.00089942
4
Lattice="1.945211 -3.369204 0.0 1.945211 3.369204 0.0 0.0 0.0 6.397962" Properties=species:S:1:pos:R:3:forces:R:3 energy=-15.39724286 stress="-0.000891518788538298 -0.0 -0.0 -0.0 -0.000891518638742079 -0.0 -0.0 -0.0 0.0013576830742380035" free_energy=-15.39724286 pbc="T T T"
Al       1.94521100      -1.12307025       6.41110661      -0.00000000       0.00000000      -0.17025478
Al       1.94521100       1.12307025       3.19712559      -0.00000000       0.00000000       0.03410665
P        1.94521100      -1.12307025       4.00058166       0.00000000      -0.00000000       0.08052785
P        1.94521100       1.12307025       0.80160066       0.00000000       0.00000000       0.05562028
4
Lattice="1.945211 -3.369204 0.0 1.945211 3.369204 0.0 0.0 0.0 6.397962" Properties=species:S:1:pos:R:3:forces:R:3 energy=-15.39714702 stress="0.0007434888729091609 -0.0 -0.0 -0.0 0.0007434887480789784 0.0 -0.0 0.0 -0.0016918846491758772" free_energy=-15.39714702 pbc="T T T"
Al       1.94521100      -1.12307025       6.38110657      -0.00000000      -0.00000000       0.17997581
Al       1.94521100       1.12307025       3.19712559      -0.00000000      -0.00000000      -0.03290729
P        1.94521100      -1.12307025       4.00058166      -0.00000000      -0.00000000      -0.08832778
P        1.94521100       1.12307025       0.80160066       0.00000000       0.00000000      -0.05874074
4
Lattice="1.945211 -3.369204 0.0 1.945211 3.369204 0.0 0.0 0.0 6.397962" Properties=species:S:1:pos:R:3:forces:R:3 energy=-15.39742055 stress="-0.0001100858280605364 0.0013476707698567363 0.0009062833966925403 0.0013476707698567363 -8.443655851902942e-05 -2.0312261193619337e-05 0.0009062833966925403 -2.0312261193619337e-05 -0.00011863175228776876" free_energy=-15.39742055 pbc="T T T"
Al       1.94521100      -1.12307025       6.39610659       0.00994298      -0.00001342       0.00045542
Al       1.94521100       1.12307025       3.19712559       0.13478449      -0.00263368      -0.00093593
P        1.96021099      -1.12307025       4.00058166      -0.14504429       0.00269813       0.00120315
P        1.94521100       1.12307025       0.80160066       0.00031682      -0.00005103      -0.00072263
4
Lattice="1.945211 -3.369204 0.0 1.945211 3.369204 0.0 0.0 0.0 6.397962" Properties=species:S:1:pos:R:3:forces:R:3 energy=-15.39742049 stress="-0.00011017779669750628 -0.0013471931758199328 -0.000906055257050971 -0.0013471931758199328 -8.450517767035939e-05 -2.0307043291990097e-05 -0.000906055257050971 -2.0307043291990097e-05 -0.00011858940364834963" free_energy=-15.39742049 pbc="T T T"
Al       1.94521100      -1.12307025       6.39610659      -0.00994024      -0.00001316       0.00045502
Al       1.94521100       1.12307025       3.19712559      -0.13477458      -0.00263308      -0.00093598
P        1.93021101      -1.12307025       4.00058166       0.14502434       0.00269756       0.00120103
P        1.94521100       1.12307025       0.80160066      -0.00030952      -0.00005132      -0.00072007
4
Lattice="1.945211 -3.369204 0.0 1.945211 3.369204 0.0 0.0 0.0 6.397962" Properties=species:S:1:pos:R:3:forces:R:3 energy=-15.39713642 stress="0.0007432007773309284 -0.0 -0.0 -0.0 0.0007432006525007459 -0.0 -0.0 -0.0 -0.0016982061120336628" free_energy=-15.39713642 pbc="T T T"
Al       1.94521100      -1.12307025       6.39610659       0.00000000      -0.00000000       0.08818259
Al       1.94521100       1.12307025       3.19712559      -0.00000000       0.00000000       0.05859767
P        1.94521100      -1.12307025       4.01558168      -0.00000000      -0.00000000      -0.18129671
P        1.94521100       1.12307025       0.80160066       0.00000000       0.00000000       0.03451645
4
Lattice="1.945211 -3.369204 0.0 1.945211 3.369204 0.0 0.0 0.0 6.397962" Properties=species:S:1:pos:R:3:forces:R:3 energy=-15.39722802 stress="-0.0008918695551096636 -0.0 -0.0 -0.0 -0.0008918694053134445 -0.0 -0.0 -0.0 0.0013523367785245367" free_energy=-15.39722802 pbc="T T T"
Al       1.94521100      -1.12307025       6.39610659       0.00000000       0.00000000      -0.08069436
Al       1.94521100       1.12307025       3.19712559       0.00000000       0.00000000      -0.05578598
P        1.94521100      -1.12307025       3.98558164       0.00000000      -0.00000000       0.17250874
P        1.94521100       1.12307025       0.80160066      -0.00000000       0.00000000      -0.03602840
