4
Lattice="4.067411 0.0 0.0 0.0 4.067411 0.0 0.0 0.0 4.067411" Properties=species:S:1:pos:R:3:forces:R:3 energy=-8.98657709 stress="0.00016873282663743637 -0.0 -0.0 -0.0 0.00016873282663743637 -0.0 -0.0 -0.0 0.00016873282663743637" free_energy=-9.00421337 pbc="T T T"
Al       0.00000000       0.00000000       0.00000000       0.00000000       0.00000000       0.00000000
Al       0.00000000       2.03370550       2.03370550       0.00000000       0.00000000       0.00000000
Al       2.03370550       0.00000000       2.03370550       0.00000000       0.00000000       0.00000000
Al       2.03370550       2.03370550       0.00000000       0.00000000       0.00000000       0.00000000
4
Lattice="4.12842216 0.0 0.0 0.0 4.067411 0.0 0.0 0.0 4.067411" Properties=species:S:1:pos:R:3:forces:R:3 energy=-8.9789844 stress="0.007637619124594331 -0.0 -0.0 -0.0 0.005610376361322574 -0.0 -0.0 -0.0 0.005610376361322574" free_energy=-8.99638096 pbc="T T T"
Al       0.00000000       0.00000000       0.00000000       0.00000000       0.00000000       0.00000000
Al       0.00000000       2.03370550       2.03370550       0.00000000       0.00000000       0.00000000
Al       2.06421108       0.00000000       2.03370550       0.00000000       0.00000000       0.00000000
Al       2.06421108       2.03370550       0.00000000       0.00000000       0.00000000       0.00000000
4
Lattice="4.00639983 0.0 0.0 0.0 4.067411 0.0 0.0 0.0 4.067411" Properties=species:S:1:pos:R:3:forces:R:3 energy=-8.98702274 stress="-0.009885592283884113 -0.0 -0.0 -0.0 -0.00527948191865165 -0.0 -0.0 -0.0 -0.00527948191865165" free_energy=-9.00412485 pbc="T T T"
Al       0.00000000       0.00000000       0.00000000       0.00000000       0.00000000       0.00000000
Al       0.00000000       2.03370550       2.03370550       0.00000000       0.00000000       0.00000000
Al       2.00319992       0.00000000       2.03370550       0.00000000       0.00000000       0.00000000
Al       2.00319992       2.03370550       0.00000000       0.00000000       0.00000000       0.00000000
4
Lattice="4.067411 0.0 0.0 0.0 4.12842216 0.0 0.0 0.0 4.067411" Properties=species:S:1:pos:R:3:forces:R:3 energy=-8.97898446 stress="0.005610376623465957 -0.0 -0.0 -0.0 0.007637619049696223 -0.0 -0.0 -0.0 0.005610376623465957" free_energy=-8.99638102 pbc="T T T"
Al       0.00000000       0.00000000       0.00000000       0.00000000       0.00000000       0.00000000
Al       0.00000000       2.06421108       2.03370550       0.00000000       0.00000000       0.00000000
Al       2.03370550       0.00000000       2.03370550       0.00000000       0.00000000       0.00000000
Al       2.03370550       2.06421108       0.00000000       0.00000000       0.00000000       0.00000000
4
Lattice="4.067411 0.0 0.0 0.0 4.00639983 0.0 0.0 0.0 4.067411" Properties=species:S:1:pos:R:3:forces:R:3 energy=-8.98702275 stress="-0.0052794819061686305 -0.0 -0.0 -0.0 -0.009885592152812421 -0.0 -0.0 -0.0 -0.0052794819061686305" free_energy=-9.00412486 pbc="T T T"
Al       0.00000000       0.00000000       0.00000000       0.00000000       0.00000000       0.00000000
Al       0.00000000       2.00319992       2.03370550       0.00000000       0.00000000       0.00000000
Al       2.03370550       0.00000000       2.03370550       0.00000000       0.00000000       0.00000000
Al       2.03370550       2.00319992       0.00000000       0.00000000       0.00000000       0.00000000
4
Lattice="4.067411 0.0 0.0 0.0 4.067411 0.0 0.0 0.0 4.12842216" Properties=species:S:1:pos:R:3:forces:R:3 energy=-8.97898442 stress="0.00561037724137536 -0.0 -0.0 -0.0 0.00561037724137536 -0.0 -0.0 -0.0 0.007637619867333918" free_energy=-8.99638098 pbc="T T T"
Al       0.00000000       0.00000000       0.00000000       0.00000000       0.00000000       0.00000000
Al       0.00000000       2.03370550       2.06421108       0.00000000       0.00000000       0.00000000
Al       2.03370550       0.00000000       2.06421108       0.00000000       0.00000000       0.00000000
Al       2.03370550       2.03370550       0.00000000       0.00000000       0.00000000       0.00000000
4
Lattice="4.067411 0.0 0.0 0.0 4.067411 0.0 0.0 0.0 4.00639983" Properties=species:S:1:pos:R:3:forces:R:3 energy=-8.98702275 stress="-0.005279481825029013 -0.0 -0.0 -0.0 -0.005279481825029013 -0.0 -0.0 -0.0 -0.00988559215905393" free_energy=-9.00412485 pbc="T T T"
Al       0.00000000       0.00000000       0.00000000       0.00000000       0.00000000       0.00000000
Al       0.00000000       2.03370550       2.00319992       0.00000000       0.00000000       0.00000000
Al       2.03370550       0.00000000       2.00319992       0.00000000       0.00000000       0.00000000
Al       2.03370550       2.03370550       0.00000000       0.00000000       0.00000000       0.00000000
4
Lattice="4.067411 0.06101116 0.0 0.0 4.067411 0.0 0.0 0.0 4.067411" Properties=species:S:1:pos:R:3:forces:R:3 energy=-8.98636953 stress="-4.05780605933056e-05 0.0015158192164777345 -0.0 0.0015158192164777345 -1.6030136544606355e-05 -0.0 -0.0 -0.0 0.00023563681125960418" free_energy=-9.00363803 pbc="T T T"
Al       0.00000000       0.00000000       0.00000000       0.00000000       0.00000000       0.00000000
Al       0.00000000       2.03370550       2.03370550       0.00000000       0.00000000       0.00000000
Al       2.03370550       0.03050558       2.03370550       0.00000000       0.00000000       0.00000000
Al       2.03370550       2.06421108       0.00000000       0.00000000       0.00000000       0.00000000
4
Lattice="4.067411 -0.06101116 0.0 0.0 4.067411 0.0 0.0 0.0 4.067411" Properties=species:S:1:pos:R:3:forces:R:3 energy=-8.98636953 stress="-4.057408475199241e-05 -0.0015158274989603444 -0.0 -0.0015158274989603444 -1.6025898559909882e-05 -0.0 -0.0 -0.0 0.00023563909565194426" free_energy=-9.00363803 pbc="T T T"
Al       0.00000000       0.00000000       0.00000000       0.00000000       0.00000000       0.00000000
Al       0.00000000       2.03370550       2.03370550       0.00000000       0.00000000       0.00000000
Al       2.03370550      -0.03050558       2.03370550       0.00000000       0.00000000       0.00000000
Al       2.03370550       2.00319992       0.00000000       0.00000000       0.00000000       0.00000000
4
Lattice="4.067411 0.0 0.0 0.0 4.067411 0.06101116 0.0 0.0 4.067411" Properties=species:S:1:pos:R:3:forces:R:3 energy=-8.98636977 stress="0.00023563561913136113 -0.0 -0.0 -0.0 -4.057156318230555e-05 0.0015157884770452895 -0.0 0.0015157884770452895 -1.6025873593873378e-05" free_energy=-9.00363828 pbc="T T T"
Al       0.00000000       0.00000000       0.00000000       0.00000000       0.00000000       0.00000000
Al       0.00000000       2.03370550       2.06421108       0.00000000       0.00000000       0.00000000
Al       2.03370550       0.00000000       2.03370550       0.00000000       0.00000000       0.00000000
Al       2.03370550       2.03370550       0.03050558       0.00000000       0.00000000       0.00000000
4
Lattice="4.067411 0.0 0.0 0.0 4.067411 -0.06101116 0.0 0.0 4.067411" Properties=species:S:1:pos:R:3:forces:R:3 energy=-8.98636954 stress="0.00023563968859531122 -0.0 -0.0 -0.0 -4.057352925768021e-05 -0.0015158251147038583 -0.0 -0.0015158251147038583 -1.602541796370719e-05" free_energy=-9.00363805 pbc="T T T"
Al       0.00000000       0.00000000       0.00000000       0.00000000       0.00000000       0.00000000
Al       0.00000000       2.03370550       2.00319992       0.00000000       0.00000000       0.00000000
Al       2.03370550       0.00000000       2.03370550       0.00000000       0.00000000       0.00000000
Al       2.03370550       2.03370550      -0.03050558       0.00000000       0.00000000       0.00000000
4
Lattice="4.067411 0.0 0.0 0.0 4.067411 0.0 0.06101116 0.0 4.067411" Properties=species:S:1:pos:R:3:forces:R:3 energy=-8.98636951 stress="-1.60268909598609e-05 -0.0 0.0015158148848704012 -0.0 0.00023563902699534387 -0.0 0.0015158148848704012 -0.0 -4.057439682744871e-05" free_energy=-9.00363802 pbc="T T T"
Al       0.00000000       0.00000000       0.00000000       0.00000000       0.00000000       0.00000000
Al       0.03050558       2.03370550       2.03370550       0.00000000       0.00000000       0.00000000
Al       2.06421108       0.00000000       2.03370550       0.00000000       0.00000000       0.00000000
Al       2.03370550       2.03370550       0.00000000       0.00000000       0.00000000       0.00000000
4
Lattice="4.067411 0.0 0.0 0.0 4.067411 0.0 -0.06101116 0.0 4.067411" Properties=species:S:1:pos:R:3:forces:R:3 energy=-8.98636957 stress="-1.6026166944802297e-05 -0.0 -0.0015158244156548363 -0.0 0.0002356391518255264 -0.0 -0.0015158244156548363 -0.0 -4.0574240789720555e-05" free_energy=-9.00363807 pbc="T T T"
Al       0.00000000       0.00000000       0.00000000       0.00000000       0.00000000       0.00000000
Al      -0.03050558       2.03370550       2.03370550       0.00000000       0.00000000       0.00000000
Al       2.00319992       0.00000000       2.03370550       0.00000000       0.00000000       0.00000000
Al       2.03370550       2.03370550       0.00000000       0.00000000       0.00000000       0.00000000
4
Lattice="4.067411 0.0 0.0 0.0 4.067411 0.0 0.0 0.0 4.067411" Properties=species:S:1:pos:R:3:forces:R:3 energy=-8.98618797 stress="0.00013059130765216568 -0.0 -0.0 -0.0 0.00015021238412518472 -0.0 -0.0 -0.0 0.00015021238412518472" free_energy=-9.00382164 pbc="T T T"
Al       0.01500000       0.00000000       0.00000000      -0.05552399       0.00000000       0.00000000
Al       0.00000000       2.03370550       2.03370550      -0.01337460       0.00000000       0.00000000
Al       2.03370550       0.00000000       2.03370550       0.03444930       0.00000000       0.00000000
Al       2.03370550       2.03370550       0.00000000       0.03444930       0.00000000       0.00000000
4
Lattice="4.067411 0.0 0.0 0.0 4.067411 0.0 0.0 0.0 4.067411" Properties=species:S:1:pos:R:3:forces:R:3 energy=-8.98618801 stress="0.00013061340883598044 -0.0 -0.0 -0.0 0.00015020939444231342 -0.0 -0.0 -0.0 0.00015020939444231342" free_energy=-9.00382168 pbc="T T T"
Al      -0.01500000       0.00000000       0.00000000       0.05552715       0.00000000       0.00000000
Al       0.00000000       2.03370550       2.03370550       0.01337617       0.00000000       0.00000000
Al       2.03370550       0.00000000       2.03370550      -0.03445166       0.00000000       0.00000000
Al       2.03370550       2.03370550       0.00000000      -0.03445166       0.00000000       0.00000000
