4
Lattice="4.067411 0.0 0.0 0.0 4.067411 0.0 0.0 0.0 4.067411" Properties=species:S:1:pos:R:3:forces:R:3 energy=-8.98657709 stress="0.00016873276422234513 0.0 -0.0 0.0 0.00016873276422234513 0.0 -0.0 0.0 0.00016873276422234513" free_energy=-9.00421337 pbc="T T T"
Al       0.00000000       0.00000000       0.00000000       0.00000000       0.00000000      -0.00000000
Al       0.00000000       2.03370550       2.03370550       0.00000000      -0.00000000       0.00000000
Al       2.03370550       0.00000000       2.03370550      -0.00000000      -0.00000000      -0.00000000
Al       2.03370550       2.03370550       0.00000000       0.00000000       0.00000000       0.00000000
4
Lattice="4.12842216 0.0 0.0 0.0 4.067411 0.0 0.0 0.0 4.067411" Properties=species:S:1:pos:R:3:forces:R:3 energy=-8.9789844 stress="0.007637619149560368 -0.0 -0.0 -0.0 0.005610376373805592 -0.0 -0.0 -0.0 0.005610376373805592" free_energy=-8.99638096 pbc="T T T"
Al       0.00000000       0.00000000       0.00000000       0.00000000       0.00000000       0.00000000
Al       0.00000000       2.03370550       2.03370550       0.00000000       0.00000000       0.00000000
Al       2.06421108       0.00000000       2.03370550       0.00000000      -0.00000000      -0.00000000
Al       2.06421108       2.03370550       0.00000000       0.00000000      -0.00000000      -0.00000000
4
Lattice="4.00639983 0.0 0.0 0.0 4.067411 0.0 0.0 0.0 4.067411" Properties=species:S:1:pos:R:3:forces:R:3 energy=-8.98702274 stress="-0.00988559229636713 -0.0 -0.0 -0.0 -0.00527948191865165 -0.0 -0.0 -0.0 -0.00527948191865165" free_energy=-9.00412485 pbc="T T T"
Al       0.00000000       0.00000000       0.00000000      -0.00000000      -0.00000000      -0.00000000
Al       0.00000000       2.03370550       2.03370550       0.00000000       0.00000000       0.00000000
Al       2.00319992       0.00000000       2.03370550      -0.00000000       0.00000000      -0.00000000
Al       2.00319992       2.03370550       0.00000000      -0.00000000       0.00000000      -0.00000000
4
Lattice="4.067411 0.0 0.0 0.0 4.12842216 0.0 0.0 0.0 4.067411" Properties=species:S:1:pos:R:3:forces:R:3 energy=-8.97898446 stress="0.005610376617224448 -0.0 -0.0 -0.0 0.007637619074662259 -0.0 -0.0 -0.0 0.005610376617224448" free_energy=-8.99638102 pbc="T T T"
Al       0.00000000       0.00000000       0.00000000      -0.00000000      -0.00000000       0.00000000
Al       0.00000000       2.06421108       2.03370550      -0.00000000       0.00000000      -0.00000000
Al       2.03370550       0.00000000       2.03370550       0.00000000       0.00000000      -0.00000000
Al       2.03370550       2.06421108       0.00000000       0.00000000      -0.00000000      -0.00000000
4
Lattice="4.067411 0.0 0.0 0.0 4.00639983 0.0 0.0 0.0 4.067411" Properties=species:S:1:pos:R:3:forces:R:3 energy=-8.98702275 stress="-0.005279481937376177 0.0 -0.0 0.0 -0.009885592121604876 0.0 -0.0 0.0 -0.005279481937376177" free_energy=-9.00412486 pbc="T T T"
Al       0.00000000       0.00000000       0.00000000       0.00000000      -0.00000000      -0.00000000
Al       0.00000000       2.00319992       2.03370550      -0.00000000      -0.00000000       0.00000000
Al       2.03370550       0.00000000       2.03370550       0.00000000       0.00000000      -0.00000000
Al       2.03370550       2.00319992       0.00000000      -0.00000000       0.00000000       0.00000000
4
Lattice="4.067411 0.0 0.0 0.0 4.067411 0.0 0.0 0.0 4.12842216" Properties=species:S:1:pos:R:3:forces:R:3 energy=-8.97898442 stress="0.00561037724137536 -0.0 -0.0 -0.0 0.00561037724137536 -0.0 -0.0 -0.0 0.007637619911024482" free_energy=-8.99638098 pbc="T T T"
Al       0.00000000       0.00000000       0.00000000      -0.00000000      -0.00000000       0.00000000
Al       0.00000000       2.03370550       2.06421108      -0.00000000       0.00000000       0.00000000
Al       2.03370550       0.00000000       2.06421108       0.00000000       0.00000000      -0.00000000
Al       2.03370550       2.03370550       0.00000000       0.00000000       0.00000000       0.00000000
4
Lattice="4.067411 0.0 0.0 0.0 4.067411 0.0 0.0 0.0 4.00639983" Properties=species:S:1:pos:R:3:forces:R:3 energy=-8.98702275 stress="-0.00527948178133845 -0.0 -0.0 -0.0 -0.00527948178133845 0.0 -0.0 0.0 -0.009885592127846383" free_energy=-9.00412485 pbc="T T T"
Al       0.00000000       0.00000000       0.00000000      -0.00000000      -0.00000000      -0.00000000
Al       0.00000000       2.03370550       2.00319992      -0.00000000       0.00000000       0.00000000
Al       2.03370550       0.00000000       2.00319992       0.00000000      -0.00000000       0.00000000
Al       2.03370550       2.03370550       0.00000000       0.00000000       0.00000000      -0.00000000
4
Lattice="4.067411 0.06101116 0.0 0.0 4.067411 0.0 0.0 0.0 4.067411" Properties=species:S:1:pos:R:3:forces:R:3 energy=-8.98636953 stress="-4.0578091800851226e-05 0.0015158192664098075 -0.0 0.0015158192664098075 -1.6030155269133736e-05 -0.0 -0.0 -0.0 0.00023563681125960418" free_energy=-9.00363803 pbc="T T T"
Al       0.00000000       0.00000000       0.00000000       0.00000000      -0.00000000      -0.00000000
Al       0.00000000       2.03370550       2.03370550       0.00000000       0.00000000      -0.00000000
Al       2.03370550       0.03050558       2.03370550       0.00000000       0.00000000       0.00000000
Al       2.03370550       2.06421108       0.00000000       0.00000000      -0.00000000       0.00000000
4
Lattice="4.067411 -0.06101116 0.0 0.0 4.067411 0.0 0.0 0.0 4.067411" Properties=species:S:1:pos:R:3:forces:R:3 energy=-8.98636953 stress="-4.0574109718028914e-05 -0.001515827467752799 -0.0 -0.001515827467752799 -1.6025898559909882e-05 -0.0 -0.0 -0.0 0.00023563905820288953" free_energy=-9.00363804 pbc="T T T"
Al       0.00000000       0.00000000       0.00000000      -0.00000000       0.00000000      -0.00000000
Al       0.00000000       2.03370550       2.03370550       0.00000000      -0.00000000       0.00000000
Al       2.03370550      -0.03050558       2.03370550      -0.00000000       0.00000000      -0.00000000
Al       2.03370550       2.00319992       0.00000000      -0.00000000      -0.00000000       0.00000000
4
Lattice="4.067411 0.0 0.0 0.0 4.067411 0.06101116 0.0 0.0 4.067411" Properties=species:S:1:pos:R:3:forces:R:3 energy=-8.98636977 stress="0.0002356355816823064 -0.0 -0.0 -0.0 -4.057170049550632e-05 0.001515788314766052 -0.0 0.001515788314766052 -1.6025879835382505e-05" free_energy=-9.00363828 pbc="T T T"
Al       0.00000000       0.00000000       0.00000000      -0.00000000      -0.00000000       0.00000000
Al       0.00000000       2.03370550       2.06421108       0.00000000       0.00000000       0.00000000
Al       2.03370550       0.00000000       2.03370550      -0.00000000       0.00000000      -0.00000000
Al       2.03370550       2.03370550       0.03050558       0.00000000      -0.00000000       0.00000000
4
Lattice="4.067411 0.0 0.0 0.0 4.067411 -0.06101116 0.0 0.0 4.067411" Properties=species:S:1:pos:R:3:forces:R:3 energy=-8.98636954 stress="0.00023563963242172908 -0.0 -0.0 -0.0 -4.057353549918933e-05 -0.0015158251147038583 -0.0 -0.0015158251147038583 -1.602541796370719e-05" free_energy=-9.00363805 pbc="T T T"
Al       0.00000000       0.00000000       0.00000000       0.00000000      -0.00000000       0.00000000
Al       0.00000000       2.03370550       2.00319992      -0.00000000       0.00000000       0.00000000
Al       2.03370550       0.00000000       2.03370550       0.00000000      -0.00000000      -0.00000000
Al       2.03370550       2.03370550      -0.03050558      -0.00000000       0.00000000      -0.00000000
4
Lattice="4.067411 0.0 0.0 0.0 4.067411 0.0 0.06101116 0.0 4.067411" Properties=species:S:1:pos:R:3:forces:R:3 energy=-8.98636951 stress="-1.602687223533352e-05 -0.0 0.0015158148411798373 -0.0 0.00023563903947836212 -0.0 0.0015158148411798373 -0.0 -4.057445924253996e-05" free_energy=-9.00363802 pbc="T T T"
Al       0.00000000       0.00000000       0.00000000      -0.00000000       0.00000000       0.00000000
Al       0.03050558       2.03370550       2.03370550       0.00000000       0.00000000       0.00000000
Al       2.06421108       0.00000000       2.03370550      -0.00000000       0.00000000      -0.00000000
Al       2.03370550       2.03370550       0.00000000       0.00000000       0.00000000      -0.00000000
4
Lattice="4.067411 0.0 0.0 0.0 4.067411 0.0 -0.06101116 0.0 4.067411" Properties=species:S:1:pos:R:3:forces:R:3 energy=-8.98636957 stress="-1.6026198152347926e-05 -0.0 -0.0015158244655869093 -0.0 0.00023563920799910852 -0.0 -0.0015158244655869093 -0.0 -4.057425951424793e-05" free_energy=-9.00363807 pbc="T T T"
Al       0.00000000       0.00000000       0.00000000       0.00000000       0.00000000      -0.00000000
Al      -0.03050558       2.03370550       2.03370550      -0.00000000      -0.00000000       0.00000000
Al       2.00319992       0.00000000       2.03370550       0.00000000       0.00000000      -0.00000000
Al       2.03370550       2.03370550       0.00000000      -0.00000000       0.00000000      -0.00000000
4
Lattice="4.067411 0.0 0.0 0.0 4.067411 0.0 0.0 0.0 4.067411" Properties=species:S:1:pos:R:3:forces:R:3 energy=-8.98618797 stress="0.0001305913513427296 -0.0 -0.0 -0.0 0.00015021240284971208 -0.0 -0.0 -0.0 0.00015021240284971208" free_energy=-9.00382164 pbc="T T T"
Al       0.01500000       0.00000000       0.00000000      -0.05552399      -0.00000000      -0.00000000
Al       0.00000000       2.03370550       2.03370550      -0.01337460      -0.00000000       0.00000000
Al       2.03370550       0.00000000       2.03370550       0.03444930      -0.00000000       0.00000000
Al       2.03370550       2.03370550       0.00000000       0.03444930       0.00000000       0.00000000
4
Lattice="4.067411 0.0 0.0 0.0 4.067411 0.0 0.0 0.0 4.067411" Properties=species:S:1:pos:R:3:forces:R:3 energy=-8.98618801 stress="0.0001306133713869257 -0.0 0.0 -0.0 0.00015020939444231342 0.0 0.0 0.0 0.00015020939444231342" free_energy=-9.00382168 pbc="T T T"
Al      -0.01500000       0.00000000       0.00000000       0.05552715      -0.00000000       0.00000000
Al       0.00000000       2.03370550       2.03370550       0.01337617       0.00000000      -0.00000000
Al       2.03370550       0.00000000       2.03370550      -0.03445166       0.00000000      -0.00000000
Al       2.03370550       2.03370550       0.00000000      -0.03445166       0.00000000      -0.00000000
