8
Lattice="4.621245 0.0 0.0 0.0 7.759811 0.0 0.0 0.0 7.762985" Properties=species:S:1:pos:R:3:forces:R:3 energy=-24.82082421 stress="0.0012839753703139296 -0.0 -0.0 -0.0 -0.0002017288767068745 0.0 -0.0 0.0 -0.0001633253953420814" free_energy=-24.82082581 pbc="T T T"
Al       2.31062250       2.78636189       4.97775019       0.00000000      -0.00227057       0.00087398
Al       2.31062250       6.66626739       6.66672731       0.00000000      -0.00227057      -0.00087398
Al       2.31062250       1.09354361       1.09625769       0.00000000       0.00227057       0.00087398
Al       2.31062250       4.97344911       2.78523481       0.00000000       0.00227057      -0.00087398
P        2.31062250       1.19635334       6.56933290       0.00000000       0.00194004      -0.00142842
P        2.31062250       6.56345766       1.19365210       0.00000000      -0.00194004       0.00142842
P        2.31062250       2.68355216       2.68784040       0.00000000      -0.00194004      -0.00142842
P        2.31062250       5.07625884       5.07514460       0.00000000       0.00194004       0.00142842
8
Lattice="4.69056367 0.0 0.0 0.0 7.759811 0.0 0.0 0.0 7.762985" Properties=species:S:1:pos:R:3:forces:R:3 energy=-24.81385459 stress="0.0019543023904796206 -0.0 -0.0 -0.0 -0.0003046386045480361 -0.0 -0.0 -0.0 -0.00026668560410440367" free_energy=-24.81385501 pbc="T T T"
Al       2.34528184       2.78636189       4.97775019       0.00000000      -0.00230135       0.00090197
Al       2.34528184       6.66626739       6.66672731       0.00000000      -0.00230135      -0.00090197
Al       2.34528184       1.09354361       1.09625769       0.00000000       0.00230135       0.00090197
Al       2.34528184       4.97344911       2.78523481       0.00000000       0.00230135      -0.00090197
P        2.34528184       1.19635334       6.56933290       0.00000000       0.00174698      -0.00122238
P        2.34528184       6.56345766       1.19365210       0.00000000      -0.00174698       0.00122238
P        2.34528184       2.68355216       2.68784040       0.00000000      -0.00174698      -0.00122238
P        2.34528184       5.07625884       5.07514460       0.00000000       0.00174698       0.00122238
8
Lattice="4.55192633 0.0 0.0 0.0 7.759811 0.0 0.0 0.0 7.762985" Properties=species:S:1:pos:R:3:forces:R:3 energy=-24.82469601 stress="0.0004525120580264056 -0.0 -0.0 -0.0 -8.272995516175741e-05 -0.0 -0.0 -0.0 -4.349196530230633e-05" free_energy=-24.82470215 pbc="T T T"
Al       2.27596316       2.78636189       4.97775019       0.00000000      -0.00208966       0.00069813
Al       2.27596316       6.66626739       6.66672731       0.00000000      -0.00208966      -0.00069813
Al       2.27596316       1.09354361       1.09625769       0.00000000       0.00208966       0.00069813
Al       2.27596316       4.97344911       2.78523481       0.00000000       0.00208966      -0.00069813
P        2.27596316       1.19635334       6.56933290       0.00000000       0.00203924      -0.00154434
P        2.27596316       6.56345766       1.19365210       0.00000000      -0.00203924       0.00154434
P        2.27596316       2.68355216       2.68784040       0.00000000      -0.00203924      -0.00154434
P        2.27596316       5.07625884       5.07514460       0.00000000       0.00203924       0.00154434
8
Lattice="4.621245 0.0 0.0 0.0 7.87620816 0.0 0.0 0.0 7.762985" Properties=species:S:1:pos:R:3:forces:R:3 energy=-24.77707815 stress="0.0011548934280891487 -0.0 -0.0 -0.0 0.013732002292615154 0.0 -0.0 0.0 0.0041248866474534445" free_energy=-24.7770809 pbc="T T T"
Al       2.31062250       2.82815732       4.97775019       0.00000000       0.13531253       0.09568667
Al       2.31062250       6.76626140       6.66672731       0.00000000       0.13531253      -0.09568667
Al       2.31062250       1.10994676       1.09625769      -0.00000000      -0.13531253       0.09568667
Al       2.31062250       5.04805084       2.78523481       0.00000000      -0.13531253      -0.09568667
P        2.31062250       1.21429864       6.56933290       0.00000000      -0.16947912      -0.07028440
P        2.31062250       6.66190952       1.19365210       0.00000000       0.16947912       0.07028440
P        2.31062250       2.72380544       2.68784040       0.00000000       0.16947912      -0.07028440
P        2.31062250       5.15240272       5.07514460       0.00000000      -0.16947912       0.07028440
8
Lattice="4.621245 0.0 0.0 0.0 7.64341383 0.0 0.0 0.0 7.762985" Properties=species:S:1:pos:R:3:forces:R:3 energy=-24.80405404 stress="0.0014212893699965294 -0.0 -0.0 -0.0 -0.016015075333696945 -0.0 -0.0 -0.0 -0.0048928643560444095" free_energy=-24.80405504 pbc="T T T"
Al       2.31062250       2.74456646       4.97775019       0.00000000      -0.17866928      -0.10780991
Al       2.31062250       6.56627338       6.66672731      -0.00000000      -0.17866928       0.10780991
Al       2.31062250       1.07714045       1.09625769       0.00000000       0.17866928      -0.10780991
Al       2.31062250       4.89884737       2.78523481       0.00000000       0.17866928       0.10780991
P        2.31062250       1.17840804       6.56933290       0.00000000       0.21326370       0.07576562
P        2.31062250       6.46500579       1.19365210       0.00000000      -0.21326370      -0.07576562
P        2.31062250       2.64329887       2.68784040       0.00000000      -0.21326370       0.07576562
P        2.31062250       5.00011496       5.07514460       0.00000000       0.21326370      -0.07576562
8
Lattice="4.621245 0.0 0.0 0.0 7.759811 0.0 0.0 0.0 7.87942977" Properties=species:S:1:pos:R:3:forces:R:3 energy=-24.77693474 stress="0.0011549813709527325 -0.0 -0.0 -0.0 0.004086647910722029 -0.0 -0.0 -0.0 0.013765681232439564" free_energy=-24.77693749 pbc="T T T"
Al       2.31062250       2.78636189       5.05241644       0.00000000      -0.09776410      -0.13609087
Al       2.31062250       6.66626739       6.76672822       0.00000000      -0.09776410       0.13609087
Al       2.31062250       1.09354361       1.11270155       0.00000000       0.09776410      -0.13609087
Al       2.31062250       4.97344911       2.82701333       0.00000000       0.09776410       0.13609087
P        2.31062250       1.19635334       6.66787289       0.00000000       0.07054554       0.16880686
P        2.31062250       6.56345766       1.21155688       0.00000000      -0.07054554      -0.16880686
P        2.31062250       2.68355216       2.72815800       0.00000000      -0.07054554       0.16880686
P        2.31062250       5.07625884       5.15127177       0.00000000       0.07054554      -0.16880686
8
Lattice="4.621245 0.0 0.0 0.0 7.759811 0.0 0.0 0.0 7.64654022" Properties=species:S:1:pos:R:3:forces:R:3 energy=-24.80421878 stress="0.0014212483133494993 -0.0 -0.0 -0.0 -0.0049323565750535765 0.0 -0.0 0.0 -0.01597128978028837" free_energy=-24.80421978 pbc="T T T"
Al       2.31062250       2.78636189       4.90308393       0.00000000       0.10723395       0.17655328
Al       2.31062250       6.66626739       6.56672640       0.00000000       0.10723395      -0.17655328
Al       2.31062250       1.09354361       1.07981382       0.00000000      -0.10723395       0.17655328
Al       2.31062250       4.97344911       2.74345629       0.00000000      -0.10723395      -0.17655328
P        2.31062250       1.19635334       6.47079290       0.00000000      -0.07491374      -0.21142247
P        2.31062250       6.56345766       1.17574732       0.00000000       0.07491374       0.21142247
P        2.31062250       2.68355216       2.64752279       0.00000000       0.07491374      -0.21142247
P        2.31062250       5.07625884       4.99901743       0.00000000      -0.07491374       0.21142247
8
Lattice="4.621245 0.06931867 0.0 0.0 7.759811 0.0 0.0 0.0 7.762985" Properties=species:S:1:pos:R:3:forces:R:3 energy=-24.82135425 stress="0.0013026638280103408 -0.000257926463683922 -0.0 -0.000257926463683922 -0.00020911147101416997 -0.0 -0.0 -0.0 -0.00016546060937253695" free_energy=-24.82135582 pbc="T T T"
Al       2.31062250       2.82102123       4.97775019      -0.00027065      -0.00217424       0.00086405
Al       2.31062250       6.70092673       6.66672731      -0.00027065      -0.00217424      -0.00086405
Al       2.31062250       1.12820294       1.09625769       0.00027065       0.00217424       0.00086405
Al       2.31062250       5.00810844       2.78523481       0.00027065       0.00217424      -0.00086405
P        2.31062250       1.23101268       6.56933290       0.00117063       0.00189170      -0.00141202
P        2.31062250       6.59811699       1.19365210      -0.00117063      -0.00189170       0.00141202
P        2.31062250       2.71821149       2.68784040      -0.00117063      -0.00189170      -0.00141202
P        2.31062250       5.11091818       5.07514460       0.00117063       0.00189170       0.00141202
8
Lattice="4.621245 -0.06931867 0.0 0.0 7.759811 0.0 0.0 0.0 7.762985" Properties=species:S:1:pos:R:3:forces:R:3 energy=-24.82135416 stress="0.0013027203386339664 0.0002576943981331125 -0.0 0.0002576943981331125 -0.00020904406895711956 -0.0 -0.0 -0.0 -0.00016574114024170885" free_energy=-24.82135573 pbc="T T T"
Al       2.31062250       2.75170256       4.97775019       0.00027015      -0.00217239       0.00086523
Al       2.31062250       6.63160806       6.66672731       0.00027015      -0.00217239      -0.00086523
Al       2.31062250       1.05888427       1.09625769      -0.00027015       0.00217239       0.00086523
Al       2.31062250       4.93878977       2.78523481      -0.00027015       0.00217239      -0.00086523
P        2.31062250       1.16169401       6.56933290      -0.00117099       0.00188332      -0.00142036
P        2.31062250       6.52879832       1.19365210       0.00117099      -0.00188332       0.00142036
P        2.31062250       2.64889282       2.68784040       0.00117099      -0.00188332      -0.00142036
P        2.31062250       5.04159951       5.07514460      -0.00117099       0.00188332       0.00142036
8
Lattice="4.621245 0.0 0.0 0.0 7.759811 0.11639716 0.0 0.0 7.762985" Properties=species:S:1:pos:R:3:forces:R:3 energy=-24.80905435 stress="0.001283181843568192 -0.0 -0.0 -0.0 -0.00030149123619018176 0.005670122520864087 -0.0 0.005670122520864087 -0.00017053287786934112" free_energy=-24.80905607 pbc="T T T"
Al       2.31062250       2.78636189       5.01954562       0.00000000       0.11657788      -0.11491355
Al       2.31062250       6.66626739       6.76672132      -0.00000000      -0.10863000      -0.11141445
Al       2.31062250       1.09354361       1.11266084       0.00000000       0.10863000       0.11141445
Al       2.31062250       4.97344911       2.85983654       0.00000000      -0.11657788       0.11491355
P        2.31062250       1.19635334       6.58727820      -0.00000000      -0.07936593       0.07617735
P        2.31062250       6.56345766       1.29210396       0.00000000       0.07936593      -0.07617735
P        2.31062250       2.68355216       2.72809368       0.00000000      -0.07153077      -0.07351282
P        2.31062250       5.07625884       5.15128848       0.00000000       0.07153077       0.07351282
8
Lattice="4.621245 0.0 0.0 0.0 7.759811 -0.11639716 0.0 0.0 7.762985" Properties=species:S:1:pos:R:3:forces:R:3 energy=-24.80905439 stress="0.001283178566775901 -0.0 -0.0 -0.0 -0.0003014998120237207 -0.005670198548686749 -0.0 -0.005670198548686749 -0.00017055310035890897" free_energy=-24.80905611 pbc="T T T"
Al       2.31062250       2.78636189       4.93595476       0.00000000      -0.10863070       0.11141471
Al       2.31062250       6.66626739       6.56673330      -0.00000000       0.11657917       0.11491412
Al       2.31062250       1.09354361       1.07985454       0.00000000      -0.11657917      -0.11491412
Al       2.31062250       4.97344911       2.71063308       0.00000000       0.10863070      -0.11141471
P        2.31062250       1.19635334       6.55138760      -0.00000000       0.07153581      -0.07351789
P        2.31062250       6.56345766       1.09520024       0.00000000      -0.07153581       0.07351789
P        2.31062250       2.68355216       2.64758712       0.00000000       0.07937157       0.07618262
P        2.31062250       5.07625884       4.99900072      -0.00000000      -0.07937157      -0.07618262
8
Lattice="4.621245 0.0 0.0 0.0 7.759811 0.0 0.11644477 0.0 7.762985" Properties=species:S:1:pos:R:3:forces:R:3 energy=-24.82128192 stress="0.0012877400301658428 -0.0 -0.00027846313833816244 -0.0 -0.00016988411668626943 -0.0 -0.00027846313833816244 -0.0 -5.0526932517326626e-05" free_energy=-24.82128351 pbc="T T T"
Al       2.38528875       2.78636189       4.97775019       0.00026876      -0.00303822      -0.00039229
Al       2.41062341       6.66626739       6.66672731      -0.00026876      -0.00303822       0.00039229
Al       2.32706636       1.09354361       1.09625769       0.00026876       0.00303822      -0.00039229
Al       2.35240102       4.97344911       2.78523481      -0.00026876       0.00303822       0.00039229
P        2.40916249       1.19635334       6.56933290      -0.00114582       0.00248118       0.00005768
P        2.32852728       6.56345766       1.19365210       0.00114582      -0.00248118      -0.00005768
P        2.35094010       2.68355216       2.68784040      -0.00114582      -0.00248118       0.00005768
P        2.38674967       5.07625884       5.07514460       0.00114582       0.00248118      -0.00005768
8
Lattice="4.621245 0.0 0.0 0.0 7.759811 0.0 -0.11644477 0.0 7.762985" Properties=species:S:1:pos:R:3:forces:R:3 energy=-24.82128203 stress="0.001288089542193874 -0.0 0.0002781116477517383 -0.0 -0.00016977548946144256 -0.0 0.0002781116477517383 -0.0 -5.03024254340686e-05" free_energy=-24.82128362 pbc="T T T"
Al       2.23595625       2.78636189       4.97775019      -0.00026831      -0.00303864      -0.00039270
Al       2.21062159       6.66626739       6.66672731       0.00026831      -0.00303864       0.00039270
Al       2.29417864       1.09354361       1.09625769      -0.00026831       0.00303864      -0.00039270
Al       2.26884398       4.97344911       2.78523481       0.00026831       0.00303864       0.00039270
P        2.21208251       1.19635334       6.56933290       0.00114529       0.00248135       0.00005851
P        2.29271772       6.56345766       1.19365210      -0.00114529      -0.00248135      -0.00005851
P        2.27030490       2.68355216       2.68784040       0.00114529      -0.00248135       0.00005851
P        2.23449533       5.07625884       5.07514460      -0.00114529       0.00248135      -0.00005851
8
Lattice="4.621245 0.0 0.0 0.0 7.759811 0.0 0.0 0.0 7.762985" Properties=species:S:1:pos:R:3:forces:R:3 energy=-24.82073806 stress="0.0012853538450534354 1.6228735123482836e-06 -1.4878384624097994e-06 1.6228735123482836e-06 -0.0001974204440968959 -1.8073350730546373e-06 -1.4878384624097994e-06 -1.8073350730546373e-06 -0.00015903587450475423" free_energy=-24.82073967 pbc="T T T"
Al       2.32562251       2.78636189       4.97775019      -0.01047436      -0.00222870       0.00083256
Al       2.31062250       6.66626739       6.66672731       0.00895390      -0.00225363      -0.00087229
Al       2.31062250       1.09354361       1.09625769       0.00898884       0.00226845       0.00085706
Al       2.31062250       4.97344911       2.78523481      -0.00055345       0.00225960      -0.00086358
P        2.31062250       1.19635334       6.56933290      -0.00695085       0.00233793      -0.00182744
P        2.31062250       6.56345766       1.19365210      -0.00146320      -0.00194020       0.00142961
P        2.31062250       2.68355216       2.68784040       0.00073534      -0.00194275      -0.00098900
P        2.31062250       5.07625884       5.07514460       0.00076378       0.00149930       0.00143308
8
Lattice="4.621245 0.0 0.0 0.0 7.759811 0.0 0.0 0.0 7.762985" Properties=species:S:1:pos:R:3:forces:R:3 energy=-24.82073803 stress="0.001285279390091073 -1.6140480184442847e-06 1.5499227536849602e-06 -1.6140480184442847e-06 -0.0001974711750830711 -1.8132020916329677e-06 1.5499227536849602e-06 -1.8132020916329677e-06 -0.00015907421609531454" free_energy=-24.82073964 pbc="T T T"
Al       2.29562249       2.78636189       4.97775019       0.01047713      -0.00222879       0.00083257
Al       2.31062250       6.66626739       6.66672731      -0.00894890      -0.00225374      -0.00087179
Al       2.31062250       1.09354361       1.09625769      -0.00898463       0.00226829       0.00085708
Al       2.31062250       4.97344911       2.78523481       0.00055818       0.00225955      -0.00086305
P        2.31062250       1.19635334       6.56933290       0.00693805       0.00233844      -0.00182687
P        2.31062250       6.56345766       1.19365210       0.00147024      -0.00194053       0.00142861
P        2.31062250       2.68355216       2.68784040      -0.00074707      -0.00194307      -0.00098861
P        2.31062250       5.07625884       5.07514460      -0.00076300       0.00149985       0.00143205
8
Lattice="4.621245 0.0 0.0 0.0 7.759811 0.0 0.0 0.0 7.762985" Properties=species:S:1:pos:R:3:forces:R:3 energy=-24.81921278 stress="0.0012844814006663105 -0.0 -0.0 -0.0 -0.0007944856599919749 -0.00039758712100163485 -0.0 -0.00039758712100163485 0.0001950369990069949" free_energy=-24.81921439 pbc="T T T"
Al       2.31062250       2.80136192       4.97775019       0.00000000      -0.23280934       0.06131409
Al       2.31062250       6.66626739       6.66672731       0.00000000       0.02221154       0.00974068
Al       2.31062250       1.09354361       1.09625769       0.00000000       0.00519347      -0.00967491
Al       2.31062250       4.97344911       2.78523481       0.00000000      -0.00344150      -0.02982993
P        2.31062250       1.19635334       6.56933290       0.00000000       0.07365071      -0.06427396
P        2.31062250       6.56345766       1.19365210       0.00000000      -0.00803557       0.00985167
P        2.31062250       2.68355216       2.68784040       0.00000000       0.01349513       0.01243793
P        2.31062250       5.07625884       5.07514460       0.00000000       0.12973554       0.01043443
8
Lattice="4.621245 0.0 0.0 0.0 7.759811 0.0 0.0 0.0 7.762985" Properties=species:S:1:pos:R:3:forces:R:3 energy=-24.81909893 stress="0.0012832480098064355 -0.0 -0.0 -0.0 0.00032642931697433994 0.0004112723412921743 -0.0 0.0004112723412921743 -0.0005396857180254268" free_energy=-24.81910059 pbc="T T T"
Al       2.31062250       2.77136187       4.97775019       0.00000000       0.22185573      -0.06467792
Al       2.31062250       6.66626739       6.66672731       0.00000000      -0.02653775      -0.01145009
Al       2.31062250       1.09354361       1.09625769       0.00000000      -0.00069124       0.01148245
Al       2.31062250       4.97344911       2.78523481       0.00000000       0.00792338       0.02780893
P        2.31062250       1.19635334       6.56933290       0.00000000      -0.07210581       0.06510970
P        2.31062250       6.56345766       1.19365210       0.00000000       0.00410166      -0.00691222
P        2.31062250       2.68355216       2.68784040       0.00000000      -0.01722685      -0.01443534
P        2.31062250       5.07625884       5.07514460       0.00000000      -0.11731913      -0.00692551
8
Lattice="4.621245 0.0 0.0 0.0 7.759811 0.0 0.0 0.0 7.762985" Properties=species:S:1:pos:R:3:forces:R:3 energy=-24.81907943 stress="0.0012834317036615193 -0.0 -0.0 -0.0 -0.0005755649208884025 0.00041349016793742 -0.0 0.00041349016793742 0.0003628781761337258" free_energy=-24.81908109 pbc="T T T"
Al       2.31062250       2.78636189       4.99275022       0.00000000       0.06330287      -0.22320186
Al       2.31062250       6.66626739       6.66672731       0.00000000      -0.01288872       0.00199806
Al       2.31062250       1.09354361       1.09625769       0.00000000       0.01282810       0.02513592
Al       2.31062250       4.97344911       2.78523481       0.00000000      -0.02641047      -0.00642909
P        2.31062250       1.19635334       6.56933290       0.00000000      -0.06458236       0.07281063
P        2.31062250       6.56345766       1.19365210       0.00000000       0.00642100      -0.00463613
P        2.31062250       2.68355216       2.68784040       0.00000000       0.00666776       0.11761105
P        2.31062250       5.07625884       5.07514460       0.00000000       0.01466183       0.01671141
8
Lattice="4.621245 0.0 0.0 0.0 7.759811 0.0 0.0 0.0 7.762985" Properties=species:S:1:pos:R:3:forces:R:3 energy=-24.81923419 stress="0.0012848000484317142 -0.0 -0.0 -0.0 0.00015400830145480051 -0.0003997713932938198 -0.0 -0.0003997713932938198 -0.0007534943116303897" free_energy=-24.81923579 pbc="T T T"
Al       2.31062250       2.78636189       4.96275016       0.00000000      -0.06269417       0.23130696
Al       2.31062250       6.66626739       6.66672731       0.00000000       0.00829948      -0.00369551
Al       2.31062250       1.09354361       1.09625769       0.00000000      -0.00832766      -0.02360065
Al       2.31062250       4.97344911       2.78523481       0.00000000       0.03123268       0.00473550
P        2.31062250       1.19635334       6.56933290       0.00000000       0.06475024      -0.07330107
P        2.31062250       6.56345766       1.19365210       0.00000000      -0.01038310       0.00754748
P        2.31062250       2.68355216       2.68784040       0.00000000      -0.01123869      -0.12897898
P        2.31062250       5.07625884       5.07514460       0.00000000      -0.01163877      -0.01401372
8
Lattice="4.621245 0.0 0.0 0.0 7.759811 0.0 0.0 0.0 7.762985" Properties=species:S:1:pos:R:3:forces:R:3 energy=-24.82091083 stress="0.0012834719301878356 -4.452268187784556e-06 4.351305536164268e-06 -4.452268187784556e-06 -0.00019697275313031455 -2.148726897713074e-06 4.351305536164268e-06 -2.148726897713074e-06 -0.00015860575962787138" free_energy=-24.82091244 pbc="T T T"
Al       2.31062250       2.78636189       4.97775019      -0.00694110      -0.00262405       0.00122971
Al       2.31062250       6.66626739       6.66672731       0.00076209      -0.00185111      -0.00089040
Al       2.31062250       1.09354361       1.09625769       0.00074637       0.00228935       0.00045664
Al       2.31062250       4.97344911       2.78523481      -0.00146594       0.00224034      -0.00084289
P        2.32562251       1.19635334       6.56933290       0.01244099       0.00182385      -0.00131873
P        2.31062250       6.56345766       1.19365210      -0.00350189      -0.00189446       0.00138451
P        2.31062250       2.68355216       2.68784040      -0.00101943      -0.00193147      -0.00143726
P        2.31062250       5.07625884       5.07514460      -0.00102109       0.00194754       0.00141843
8
Lattice="4.621245 0.0 0.0 0.0 7.759811 0.0 0.0 0.0 7.762985" Properties=species:S:1:pos:R:3:forces:R:3 energy=-24.82091081 stress="0.0012834507527473716 4.4556885347855406e-06 -4.353477581340076e-06 4.4556885347855406e-06 -0.0001969961026159545 -2.127661804413218e-06 -4.353477581340076e-06 -2.127661804413218e-06 -0.00015859267118323439" free_energy=-24.82091241 pbc="T T T"
Al       2.31062250       2.78636189       4.97775019       0.00694217      -0.00262286       0.00122732
Al       2.31062250       6.66626739       6.66672731      -0.00076062      -0.00185120      -0.00089050
Al       2.31062250       1.09354361       1.09625769      -0.00074480       0.00228855       0.00045576
Al       2.31062250       4.97344911       2.78523481       0.00146513       0.00224052      -0.00084329
P        2.29562249       1.19635334       6.56933290      -0.01244038       0.00182345      -0.00131733
P        2.31062250       6.56345766       1.19365210       0.00349919      -0.00189536       0.00138414
P        2.31062250       2.68355216       2.68784040       0.00101993      -0.00193050      -0.00143517
P        2.31062250       5.07625884       5.07514460       0.00101939       0.00194741       0.00141908
8
Lattice="4.621245 0.0 0.0 0.0 7.759811 0.0 0.0 0.0 7.762985" Properties=species:S:1:pos:R:3:forces:R:3 energy=-24.81872539 stress="0.0012844810136927447 -0.0 -0.0 -0.0 0.00045152978180319233 0.00028088031878488885 -0.0 0.00028088031878488885 -0.00043463052135431587" free_energy=-24.81872702 pbc="T T T"
Al       2.31062250       2.78636189       4.97775019       0.00000000       0.07169718      -0.06565807
Al       2.31062250       6.66626739       6.66672731       0.00000000       0.11696900      -0.01378351
Al       2.31062250       1.09354361       1.09625769       0.00000000       0.01752580      -0.00838525
Al       2.31062250       4.97344911       2.78523481       0.00000000      -0.00378604       0.00755442
P        2.31062250       1.21135337       6.56933290       0.00000000      -0.23765033       0.10018823
P        2.31062250       6.56345766       1.19365210       0.00000000       0.01562726      -0.01969267
P        2.31062250       2.68355216       2.68784040       0.00000000       0.00052030       0.00312709
P        2.31062250       5.07625884       5.07514460       0.00000000       0.01909682      -0.00335024
8
Lattice="4.621245 0.0 0.0 0.0 7.759811 0.0 0.0 0.0 7.762985" Properties=species:S:1:pos:R:3:forces:R:3 energy=-24.81934806 stress="0.0012834972457488503 -0.0 -0.0 -0.0 -0.0009173887828085327 -0.00026089661687316517 -0.0 -0.00026089661687316517 8.751394707656442e-05" free_energy=-24.81934963 pbc="T T T"
Al       2.31062250       2.78636189       4.97775019       0.00000000      -0.07408142       0.06368131
Al       2.31062250       6.66626739       6.66672731       0.00000000      -0.13010782       0.01253789
Al       2.31062250       1.09354361       1.09625769       0.00000000      -0.01321210       0.00951217
Al       2.31062250       4.97344911       2.78523481       0.00000000       0.00834758      -0.00923959
P        2.31062250       1.18135332       6.56933290       0.00000000       0.24825745      -0.09915742
P        2.31062250       6.56345766       1.19365210       0.00000000      -0.01952036       0.02283225
P        2.31062250       2.68355216       2.68784040       0.00000000      -0.00445140      -0.00623491
P        2.31062250       5.07625884       5.07514460       0.00000000      -0.01523191       0.00606830
8
Lattice="4.621245 0.0 0.0 0.0 7.759811 0.0 0.0 0.0 7.762985" Properties=species:S:1:pos:R:3:forces:R:3 energy=-24.81935055 stress="0.0012838538730972852 -0.0 -0.0 -0.0 5.2513473800403625e-05 -0.00025892837569484525 -0.0 -0.00025892837569484525 -0.0008764744921186158" free_energy=-24.81935213 pbc="T T T"
Al       2.31062250       2.78636189       4.97775019       0.00000000      -0.06510398       0.07285201
Al       2.31062250       6.66626739       6.66672731       0.00000000      -0.01059851       0.01462975
Al       2.31062250       1.09354361       1.09625769       0.00000000      -0.01141644       0.12850752
Al       2.31062250       4.97344911       2.78523481       0.00000000       0.01057501      -0.00702230
P        2.31062250       1.19635334       6.58433293       0.00000000       0.09965127      -0.24772615
P        2.31062250       6.56345766       1.19365210       0.00000000      -0.02335360       0.01895489
P        2.31062250       2.68355216       2.68784040       0.00000000      -0.00653160       0.01582233
P        2.31062250       5.07625884       5.07514460       0.00000000       0.00677784       0.00398196
8
Lattice="4.621245 0.0 0.0 0.0 7.759811 0.0 0.0 0.0 7.762985" Properties=species:S:1:pos:R:3:forces:R:3 energy=-24.81872366 stress="0.0012844553486072191 -0.0 -0.0 -0.0 -0.000474171705002575 0.0002790990981860169 -0.0 0.0002790990981860169 0.00048541814922481235" free_energy=-24.8187253 pbc="T T T"
Al       2.31062250       2.78636189       4.97775019       0.00000000       0.06428879      -0.07327790
Al       2.31062250       6.66626739       6.66672731       0.00000000       0.00672344      -0.01612880
Al       2.31062250       1.09354361       1.09625769       0.00000000       0.01544963      -0.11814697
Al       2.31062250       4.97344911       2.78523481       0.00000000      -0.00613741       0.00520304
P        2.31062250       1.19635334       6.55433287       0.00000000      -0.09967553       0.23817143
P        2.31062250       6.56345766       1.19365210       0.00000000       0.01918411      -0.01610883
P        2.31062250       2.68355216       2.68784040       0.00000000       0.00281001      -0.01867063
P        2.31062250       5.07625884       5.07514460       0.00000000      -0.00264304      -0.00104133
