8
Lattice="5.514302 0.0 0.0 0.0 5.514302 0.0 0.0 0.0 5.514302" Properties=species:S:1:pos:R:3:forces:R:3 energy=-30.85072131 stress="-6.707452761752346e-05 -0.0 -0.0 -0.0 -6.707452761752346e-05 -0.0 -0.0 -0.0 -6.707452761752346e-05" free_energy=-30.85072131 pbc="T T T"
Al       0.00000000       0.00000000       0.00000000       0.00000000       0.00000000       0.00000000
Al       0.00000000       2.75715100       2.75715100       0.00000000       0.00000000       0.00000000
Al       2.75715100       0.00000000       2.75715100       0.00000000       0.00000000       0.00000000
Al       2.75715100       2.75715100       0.00000000       0.00000000       0.00000000       0.00000000
P        1.37857550       1.37857550       4.13572650       0.00000000       0.00000000       0.00000000
P        1.37857550       4.13572650       1.37857550       0.00000000       0.00000000       0.00000000
P        4.13572650       1.37857550       1.37857550       0.00000000       0.00000000       0.00000000
P        4.13572650       4.13572650       4.13572650       0.00000000       0.00000000       0.00000000
8
Lattice="5.59701653 0.0 0.0 0.0 5.514302 0.0 0.0 0.0 5.514302" Properties=species:S:1:pos:R:3:forces:R:3 energy=-30.82576831 stress="0.011624582938115982 -0.0 -0.0 -0.0 0.005415189803273905 -0.0 -0.0 -0.0 0.005415189803273905" free_energy=-30.82576831 pbc="T T T"
Al       0.00000000       0.00000000       0.00000000       0.00000000       0.00000000       0.00000000
Al       0.00000000       2.75715100       2.75715100       0.00000000       0.00000000       0.00000000
Al       2.79850827       0.00000000       2.75715100       0.00000000       0.00000000       0.00000000
Al       2.79850827       2.75715100       0.00000000       0.00000000       0.00000000       0.00000000
P        1.39925413       1.37857550       4.13572650       0.00000000       0.00000000       0.00000000
P        1.39925413       4.13572650       1.37857550       0.00000000       0.00000000       0.00000000
P        4.19776240       1.37857550       1.37857550       0.00000000       0.00000000       0.00000000
P        4.19776240       4.13572650       4.13572650       0.00000000       0.00000000       0.00000000
8
Lattice="5.43158747 0.0 0.0 0.0 5.514302 0.0 0.0 0.0 5.514302" Properties=species:S:1:pos:R:3:forces:R:3 energy=-30.84623941 stress="-0.012021052510667119 -0.0 -0.0 -0.0 -0.006193251362665247 -0.0 -0.0 -0.0 -0.006193251362665247" free_energy=-30.84623941 pbc="T T T"
Al       0.00000000       0.00000000       0.00000000       0.00000000       0.00000000       0.00000000
Al       0.00000000       2.75715100       2.75715100       0.00000000       0.00000000       0.00000000
Al       2.71579374       0.00000000       2.75715100       0.00000000       0.00000000       0.00000000
Al       2.71579374       2.75715100       0.00000000       0.00000000       0.00000000       0.00000000
P        1.35789687       1.37857550       4.13572650       0.00000000       0.00000000       0.00000000
P        1.35789687       4.13572650       1.37857550       0.00000000       0.00000000       0.00000000
P        4.07369060       1.37857550       1.37857550       0.00000000       0.00000000       0.00000000
P        4.07369060       4.13572650       4.13572650       0.00000000       0.00000000       0.00000000
8
Lattice="5.514302 0.0 0.0 0.0 5.59701653 0.0 0.0 0.0 5.514302" Properties=species:S:1:pos:R:3:forces:R:3 energy=-30.82576883 stress="0.005415300121947704 -0.0 -0.0 -0.0 0.011624802246022138 -0.0 -0.0 -0.0 0.005415300121947704" free_energy=-30.82576883 pbc="T T T"
Al       0.00000000       0.00000000       0.00000000       0.00000000       0.00000000       0.00000000
Al       0.00000000       2.79850827       2.75715100       0.00000000       0.00000000       0.00000000
Al       2.75715100       0.00000000       2.75715100       0.00000000       0.00000000       0.00000000
Al       2.75715100       2.79850827       0.00000000       0.00000000       0.00000000       0.00000000
P        1.37857550       1.39925413       4.13572650       0.00000000       0.00000000       0.00000000
P        1.37857550       4.19776240       1.37857550       0.00000000       0.00000000       0.00000000
P        4.13572650       1.39925413       1.37857550       0.00000000       0.00000000       0.00000000
P        4.13572650       4.19776240       4.13572650       0.00000000       0.00000000       0.00000000
8
Lattice="5.514302 0.0 0.0 0.0 5.43158747 0.0 0.0 0.0 5.514302" Properties=species:S:1:pos:R:3:forces:R:3 energy=-30.84623938 stress="-0.006193278943894075 -0.0 -0.0 -0.0 -0.012021088418069122 -0.0 -0.0 -0.0 -0.006193278943894075" free_energy=-30.84623938 pbc="T T T"
Al       0.00000000       0.00000000       0.00000000       0.00000000       0.00000000       0.00000000
Al       0.00000000       2.71579374       2.75715100       0.00000000       0.00000000       0.00000000
Al       2.75715100       0.00000000       2.75715100       0.00000000       0.00000000       0.00000000
Al       2.75715100       2.71579374       0.00000000       0.00000000       0.00000000       0.00000000
P        1.37857550       1.35789687       4.13572650       0.00000000       0.00000000       0.00000000
P        1.37857550       4.07369060       1.37857550       0.00000000       0.00000000       0.00000000
P        4.13572650       1.35789687       1.37857550       0.00000000       0.00000000       0.00000000
P        4.13572650       4.07369060       4.13572650       0.00000000       0.00000000       0.00000000
8
Lattice="5.514302 0.0 0.0 0.0 5.514302 0.0 0.0 0.0 5.59701653" Properties=species:S:1:pos:R:3:forces:R:3 energy=-30.82576893 stress="0.0054152757363715495 -0.0 -0.0 -0.0 0.0054152757363715495 -0.0 -0.0 -0.0 0.011624767942687983" free_energy=-30.82576893 pbc="T T T"
Al       0.00000000       0.00000000       0.00000000       0.00000000       0.00000000       0.00000000
Al       0.00000000       2.75715100       2.79850827       0.00000000       0.00000000       0.00000000
Al       2.75715100       0.00000000       2.79850827       0.00000000       0.00000000       0.00000000
Al       2.75715100       2.75715100       0.00000000       0.00000000       0.00000000       0.00000000
P        1.37857550       1.37857550       4.19776240       0.00000000       0.00000000       0.00000000
P        1.37857550       4.13572650       1.39925413       0.00000000       0.00000000       0.00000000
P        4.13572650       1.37857550       1.39925413       0.00000000       0.00000000       0.00000000
P        4.13572650       4.13572650       4.19776240       0.00000000       0.00000000       0.00000000
8
Lattice="5.514302 0.0 0.0 0.0 5.514302 0.0 0.0 0.0 5.43158747" Properties=species:S:1:pos:R:3:forces:R:3 energy=-30.84623917 stress="-0.006193382577911601 -0.0 -0.0 -0.0 -0.006193382577911601 -0.0 -0.0 -0.0 -0.012021183838260638" free_energy=-30.84623917 pbc="T T T"
Al       0.00000000       0.00000000       0.00000000       0.00000000       0.00000000       0.00000000
Al       0.00000000       2.75715100       2.71579374       0.00000000       0.00000000       0.00000000
Al       2.75715100       0.00000000       2.71579374       0.00000000       0.00000000       0.00000000
Al       2.75715100       2.75715100       0.00000000       0.00000000       0.00000000       0.00000000
P        1.37857550       1.37857550       4.07369060       0.00000000       0.00000000       0.00000000
P        1.37857550       4.13572650       1.35789687       0.00000000       0.00000000       0.00000000
P        4.13572650       1.37857550       1.35789687       0.00000000       0.00000000       0.00000000
P        4.13572650       4.13572650       4.07369060       0.00000000       0.00000000       0.00000000
8
Lattice="5.514302 0.08271453 0.0 0.0 5.514302 0.0 0.0 0.0 5.514302" Properties=species:S:1:pos:R:3:forces:R:3 energy=-30.84084517 stress="-0.00029757502001367367 0.007990794244399451 -0.0 0.007990794244399451 -0.00010304100550260632 -0.0 -0.0 -0.0 -0.0001642113213889184" free_energy=-30.84084517 pbc="T T T"
Al       0.00000000       0.00000000       0.00000000       0.00000000       0.00000000      -0.11553312
Al       0.00000000       2.75715100       2.75715100       0.00000000       0.00000000      -0.11553312
Al       2.75715100       0.04135726       2.75715100       0.00000000       0.00000000      -0.11553312
Al       2.75715100       2.79850826       0.00000000       0.00000000       0.00000000      -0.11553312
P        1.37857550       1.39925413       4.13572650       0.00000000       0.00000000       0.11553312
P        1.37857550       4.15640513       1.37857550       0.00000000       0.00000000       0.11553312
P        4.13572650       1.44061140       1.37857550       0.00000000       0.00000000       0.11553312
P        4.13572650       4.19776240       4.13572650       0.00000000       0.00000000       0.11553312
8
Lattice="5.514302 -0.08271453 0.0 0.0 5.514302 0.0 0.0 0.0 5.514302" Properties=species:S:1:pos:R:3:forces:R:3 energy=-30.84084483 stress="-0.00029722460920832833 -0.00799378655494609 -0.0 -0.00799378655494609 -0.00010259373895864553 -0.0 -0.0 -0.0 -0.00016375599081516694" free_energy=-30.84084483 pbc="T T T"
Al       0.00000000       0.00000000       0.00000000       0.00000000       0.00000000       0.11556006
Al       0.00000000       2.75715100       2.75715100       0.00000000       0.00000000       0.11556006
Al       2.75715100      -0.04135726       2.75715100       0.00000000       0.00000000       0.11556006
Al       2.75715100       2.71579374       0.00000000       0.00000000       0.00000000       0.11556006
P        1.37857550       1.35789687       4.13572650       0.00000000       0.00000000      -0.11556006
P        1.37857550       4.11504787       1.37857550       0.00000000       0.00000000      -0.11556006
P        4.13572650       1.31653960       1.37857550       0.00000000       0.00000000      -0.11556006
P        4.13572650       4.07369060       4.13572650       0.00000000       0.00000000      -0.11556006
8
Lattice="5.514302 0.0 0.0 0.0 5.514302 0.08271453 0.0 0.0 5.514302" Properties=species:S:1:pos:R:3:forces:R:3 energy=-30.84084534 stress="-0.00016387165846228782 -0.0 -0.0 -0.0 -0.0002972544061728953 0.007993139541385575 -0.0 0.007993139541385575 -0.00010266161537038952" free_energy=-30.84084534 pbc="T T T"
Al       0.00000000       0.00000000       0.00000000      -0.11556170       0.00000000       0.00000000
Al       0.00000000       2.75715100       2.79850826      -0.11556170       0.00000000       0.00000000
Al       2.75715100       0.00000000       2.75715100      -0.11556170       0.00000000       0.00000000
Al       2.75715100       2.75715100       0.04135726      -0.11556170       0.00000000       0.00000000
P        1.37857550       1.37857550       4.15640513       0.11556170       0.00000000       0.00000000
P        1.37857550       4.13572650       1.44061140       0.11556170       0.00000000       0.00000000
P        4.13572650       1.37857550       1.39925413       0.11556170       0.00000000       0.00000000
P        4.13572650       4.13572650       4.19776240       0.11556170       0.00000000       0.00000000
8
Lattice="5.514302 0.0 0.0 0.0 5.514302 -0.08271453 0.0 0.0 5.514302" Properties=species:S:1:pos:R:3:forces:R:3 energy=-30.84084528 stress="-0.00016424452621746809 -0.0 -0.0 -0.0 -0.0002975991247219178 -0.007990690341997031 -0.0 -0.007990690341997031 -0.00010306788144090238" free_energy=-30.84084528 pbc="T T T"
Al       0.00000000       0.00000000       0.00000000       0.11553735       0.00000000       0.00000000
Al       0.00000000       2.75715100       2.71579374       0.11553735       0.00000000       0.00000000
Al       2.75715100       0.00000000       2.75715100       0.11553735       0.00000000       0.00000000
Al       2.75715100       2.75715100      -0.04135726       0.11553735       0.00000000       0.00000000
P        1.37857550       1.37857550       4.11504787      -0.11553735       0.00000000       0.00000000
P        1.37857550       4.13572650       1.31653960      -0.11553735       0.00000000       0.00000000
P        4.13572650       1.37857550       1.35789687      -0.11553735       0.00000000       0.00000000
P        4.13572650       4.13572650       4.07369060      -0.11553735       0.00000000       0.00000000
8
Lattice="5.514302 0.0 0.0 0.0 5.514302 0.0 0.08271453 0.0 5.514302" Properties=species:S:1:pos:R:3:forces:R:3 energy=-30.84084547 stress="-0.00010293357664753162 -0.0 0.00799153748330616 -0.0 -0.00016409826269261213 -0.0 0.00799153748330616 -0.0 -0.0002974776774373464" free_energy=-30.84084547 pbc="T T T"
Al       0.00000000       0.00000000       0.00000000       0.00000000      -0.11554186       0.00000000
Al       0.04135726       2.75715100       2.75715100       0.00000000      -0.11554186       0.00000000
Al       2.79850826       0.00000000       2.75715100       0.00000000      -0.11554186       0.00000000
Al       2.75715100       2.75715100       0.00000000       0.00000000      -0.11554186       0.00000000
P        1.44061140       1.37857550       4.13572650       0.00000000       0.11554186       0.00000000
P        1.39925413       4.13572650       1.37857550       0.00000000       0.11554186       0.00000000
P        4.15640513       1.37857550       1.37857550       0.00000000       0.11554186       0.00000000
P        4.19776240       4.13572650       4.13572650       0.00000000       0.11554186       0.00000000
8
Lattice="5.514302 0.0 0.0 0.0 5.514302 0.0 -0.08271453 0.0 5.514302" Properties=species:S:1:pos:R:3:forces:R:3 energy=-30.84084528 stress="-0.00010306808741070354 -0.0 -0.00799068706520474 -0.0 -0.00016424461359859584 -0.0 -0.00799068706520474 -0.0 -0.0002975994367973741" free_energy=-30.84084528 pbc="T T T"
Al       0.00000000       0.00000000       0.00000000       0.00000000       0.11553733       0.00000000
Al      -0.04135726       2.75715100       2.75715100       0.00000000       0.11553733       0.00000000
Al       2.71579374       0.00000000       2.75715100       0.00000000       0.11553733       0.00000000
Al       2.75715100       2.75715100       0.00000000       0.00000000       0.11553733       0.00000000
P        1.31653960       1.37857550       4.13572650       0.00000000      -0.11553733       0.00000000
P        1.35789687       4.13572650       1.37857550       0.00000000      -0.11553733       0.00000000
P        4.11504787       1.37857550       1.37857550       0.00000000      -0.11553733       0.00000000
P        4.07369060       4.13572650       4.13572650       0.00000000      -0.11553733       0.00000000
8
Lattice="5.514302 0.0 0.0 0.0 5.514302 0.0 0.0 0.0 5.514302" Properties=species:S:1:pos:R:3:forces:R:3 energy=-30.84952842 stress="-6.548542691105532e-05 -0.0 -0.0 -0.0 -8.707006967205897e-05 0.0006902930960556431 -0.0 0.0006902930960556431 -8.707006967205897e-05" free_energy=-30.84952842 pbc="T T T"
Al       0.01500000       0.00000000       0.00000000      -0.16147714       0.00000000       0.00000000
Al       0.00000000       2.75715100       2.75715100      -0.03385187       0.00000000       0.00000000
Al       2.75715100       0.00000000       2.75715100       0.02480445       0.00000000       0.00000000
Al       2.75715100       2.75715100       0.00000000       0.02480445       0.00000000       0.00000000
P        1.37857550       1.37857550       4.13572650       0.03673775       0.02797981      -0.02797981
P        1.37857550       4.13572650       1.37857550       0.03673775      -0.02797981       0.02797981
P        4.13572650       1.37857550       1.37857550       0.03612231      -0.02687458      -0.02687458
P        4.13572650       4.13572650       4.13572650       0.03612231       0.02687458       0.02687458
8
Lattice="5.514302 0.0 0.0 0.0 5.514302 0.0 0.0 0.0 5.514302" Properties=species:S:1:pos:R:3:forces:R:3 energy=-30.84952843 stress="-6.547831159065183e-05 -0.0 -0.0 -0.0 -8.706408406480726e-05 -0.0006898657836163578 -0.0 -0.0006898657836163578 -8.706408406480726e-05" free_energy=-30.84952843 pbc="T T T"
Al      -0.01500000       0.00000000       0.00000000       0.16146196       0.00000000       0.00000000
Al       0.00000000       2.75715100       2.75715100       0.03387386       0.00000000       0.00000000
Al       2.75715100       0.00000000       2.75715100      -0.02480801       0.00000000       0.00000000
Al       2.75715100       2.75715100       0.00000000      -0.02480801       0.00000000       0.00000000
P        1.37857550       1.37857550       4.13572650      -0.03612231      -0.02686940       0.02686940
P        1.37857550       4.13572650       1.37857550      -0.03612231       0.02686940      -0.02686940
P        4.13572650       1.37857550       1.37857550      -0.03673759       0.02797425       0.02797425
P        4.13572650       4.13572650       4.13572650      -0.03673759      -0.02797425      -0.02797425
8
Lattice="5.514302 0.0 0.0 0.0 5.514302 0.0 0.0 0.0 5.514302" Properties=species:S:1:pos:R:3:forces:R:3 energy=-30.84946515 stress="-6.506607239590548e-05 -0.0 -0.0 -0.0 -8.727967827303351e-05 -0.0006903376229817472 -0.0 -0.0006903376229817472 -8.727967827303351e-05" free_energy=-30.84946515 pbc="T T T"
Al       0.00000000       0.00000000       0.00000000       0.03609385       0.02686952      -0.02686952
Al       0.00000000       2.75715100       2.75715100       0.03609385      -0.02686952       0.02686952
Al       2.75715100       0.00000000       2.75715100       0.03678154      -0.02798737      -0.02798737
Al       2.75715100       2.75715100       0.00000000       0.03678154       0.02798737       0.02798737
P        1.39357550       1.37857550       4.13572650      -0.16969605       0.00000000       0.00000000
P        1.37857550       4.13572650       1.37857550      -0.00698756       0.00000000       0.00000000
P        4.13572650       1.37857550       1.37857550       0.01546641       0.00000000       0.00000000
P        4.13572650       4.13572650       4.13572650       0.01546641       0.00000000       0.00000000
8
Lattice="5.514302 0.0 0.0 0.0 5.514302 0.0 0.0 0.0 5.514302" Properties=species:S:1:pos:R:3:forces:R:3 energy=-30.84946516 stress="-6.507004823721868e-05 -0.0 -0.0 -0.0 -8.727101505836678e-05 0.0006903978722693393 -0.0 0.0006903978722693393 -8.727101505836678e-05" free_energy=-30.84946516 pbc="T T T"
Al       0.00000000       0.00000000       0.00000000      -0.03678209      -0.02798795       0.02798795
Al       0.00000000       2.75715100       2.75715100      -0.03678209       0.02798795      -0.02798795
Al       2.75715100       0.00000000       2.75715100      -0.03609434       0.02687087       0.02687087
Al       2.75715100       2.75715100       0.00000000      -0.03609434      -0.02687087      -0.02687087
P        1.36357550       1.37857550       4.13572650       0.16969257       0.00000000       0.00000000
P        1.37857550       4.13572650       1.37857550       0.00698671       0.00000000       0.00000000
P        4.13572650       1.37857550       1.37857550      -0.01546320       0.00000000       0.00000000
P        4.13572650       4.13572650       4.13572650      -0.01546320       0.00000000       0.00000000
