1
Lattice="1.61025 1.61025 1.61025 1.61025 -1.61025 -1.61025 -1.61025 1.61025 -1.61025" Properties=species:S:1:pos:R:3:forces:R:3 energy=-2.14892414 stress="-0.01651580190752463 -0.0 -0.0 -0.0 -0.01651580190752463 -0.0 -0.0 -0.0 -0.01651580190752463" free_energy=-2.15307516 pbc="T T T"
Al       0.00000000       0.00000000       0.00000000       0.00000000       0.00000000       0.00000000
1
Lattice="1.63167712 1.63167712 1.63167712 1.63167712 -1.63167712 -1.63167712 -1.63167712 1.63167712 -1.63167712" Properties=species:S:1:pos:R:3:forces:R:3 energy=-2.15182422 stress="-0.00023335108323657797 -0.0 -0.0 -0.0 -0.00023335108323657797 -0.0 -0.0 -0.0 -0.00023335108323657797" free_energy=-2.15612348 pbc="T T T"
Al       0.00000000       0.00000000       0.00000000       0.00000000       0.00000000       0.00000000
1
Lattice="1.63199681 1.63199681 1.63199681 1.63199681 -1.63199681 -1.63199681 -1.63199681 1.63199681 -1.63199681" Properties=species:S:1:pos:R:3:forces:R:3 energy=-2.15179037 stress="-1.4403468194709536e-05 -0.0 -0.0 -0.0 -1.4403468194709536e-05 0.0 -0.0 0.0 -1.4403468194709536e-05" free_energy=-2.15609199 pbc="T T T"
Al       0.00000000       0.00000000       0.00000000       0.00000000       0.00000000       0.00000000
