1
Lattice="20.0 0.0 0.0 0.0 20.0 0.0 0.0 0.0 20.0" Properties=species:S:1:pos:R:3:forces:R:3 energy=1.17403084 stress="6.915592111478651e-09 0.0 -0.0 0.0 6.915592111478651e-09 -0.0 -0.0 -0.0 6.915592111478651e-09" free_energy=1.06802807 pbc="T T T"
Al      10.00000000      10.00000000      10.00000000       0.00000000       0.00000000       0.00000000
1
Lattice="20.3 0.0 0.0 0.0 20.0 0.0 0.0 0.0 20.0" Properties=species:S:1:pos:R:3:forces:R:3 energy=1.17403579 stress="1.4548957772433875e-08 -0.0 -0.0 -0.0 1.5216799248903383e-08 -0.0 -0.0 -0.0 1.5216799248903383e-08" free_energy=1.06803301 pbc="T T T"
Al      10.15000000      10.00000000      10.00000000       0.00000000       0.00000000       0.00000000
1
Lattice="19.7 0.0 0.0 0.0 20.0 0.0 0.0 0.0 20.0" Properties=species:S:1:pos:R:3:forces:R:3 energy=1.17403031 stress="7.677056224836409e-10 -0.0 -0.0 -0.0 3.5701432200052238e-09 0.0 -0.0 0.0 3.5701432200052238e-09" free_energy=1.06802753 pbc="T T T"
Al       9.85000000      10.00000000      10.00000000       0.00000000       0.00000000       0.00000000
1
Lattice="20.0 0.0 0.0 0.0 20.3 0.0 0.0 0.0 20.0" Properties=species:S:1:pos:R:3:forces:R:3 energy=1.17403131 stress="8.700663721481262e-09 0.0 -0.0 0.0 8.700663721481262e-09 -0.0 -0.0 -0.0 8.700663721481262e-09" free_energy=1.06802853 pbc="T T T"
Al      10.00000000      10.15000000      10.00000000       0.00000000       0.00000000       0.00000000
1
Lattice="20.0 0.0 0.0 0.0 19.7 0.0 0.0 0.0 20.0" Properties=species:S:1:pos:R:3:forces:R:3 energy=1.17403002 stress="3.5389356743758075e-09 -0.0 -0.0 -0.0 4.4314714793771133e-10 -0.0 -0.0 -0.0 3.5389356743758075e-09" free_energy=1.06802724 pbc="T T T"
Al      10.00000000       9.85000000      10.00000000       0.00000000       0.00000000       0.00000000
1
Lattice="20.0 0.0 0.0 0.0 20.0 0.0 0.0 0.0 20.3" Properties=species:S:1:pos:R:3:forces:R:3 energy=1.1740312 stress="9.087637287286024e-09 -0.0 0.0 -0.0 9.087637287286024e-09 -0.0 0.0 -0.0 8.994014650397774e-09" free_energy=1.06802842 pbc="T T T"
Al      10.00000000      10.00000000      10.15000000       0.00000000       0.00000000       0.00000000
1
Lattice="20.0 0.0 0.0 0.0 20.0 0.0 0.0 0.0 19.7" Properties=species:S:1:pos:R:3:forces:R:3 energy=1.17403002 stress="3.3267243640957764e-09 -0.0 -0.0 -0.0 3.3267243640957764e-09 -0.0 -0.0 -0.0 1.5603772814708144e-10" free_energy=1.06802724 pbc="T T T"
Al      10.00000000      10.00000000       9.85000000       0.00000000       0.00000000       0.00000000
1
Lattice="20.0 0.3 0.0 0.0 20.0 0.0 0.0 0.0 20.0" Properties=species:S:1:pos:R:3:forces:R:3 energy=1.17403074 stress="7.77692037085054e-09 2.9834413621721974e-09 -0.0 2.9834413621721974e-09 7.789403389102306e-09 -0.0 -0.0 -0.0 7.002973239241015e-09" free_energy=1.06802796 pbc="T T T"
Al      10.00000000      10.15000000      10.00000000       0.00000000       0.00000000       0.00000000
1
Lattice="20.0 -0.3 0.0 0.0 20.0 0.0 0.0 0.0 20.0" Properties=species:S:1:pos:R:3:forces:R:3 energy=1.17403066 stress="7.733229806969357e-09 -3.002165889549847e-09 -0.0 -3.002165889549847e-09 7.708263770465824e-09 -0.0 -0.0 -0.0 6.95304116623395e-09" free_energy=1.06802788 pbc="T T T"
Al      10.00000000       9.85000000      10.00000000       0.00000000       0.00000000       0.00000000
1
Lattice="20.0 0.0 0.0 0.0 20.0 0.3 0.0 0.0 20.0" Properties=species:S:1:pos:R:3:forces:R:3 energy=1.17403073 stress="6.990490220989249e-09 -0.0 -0.0 -0.0 7.764437352598774e-09 3.002165889549847e-09 -0.0 3.002165889549847e-09 7.808127916479956e-09" free_energy=1.06802796 pbc="T T T"
Al      10.00000000      10.00000000      10.15000000       0.00000000       0.00000000       0.00000000
1
Lattice="20.0 0.0 0.0 0.0 20.0 -0.3 0.0 0.0 20.0" Properties=species:S:1:pos:R:3:forces:R:3 energy=1.17403077 stress="6.803244947212752e-09 -0.0 -0.0 -0.0 7.589675097074043e-09 -2.9771998530463143e-09 -0.0 -2.9771998530463143e-09 7.602158115325809e-09" free_energy=1.06802799 pbc="T T T"
Al      10.00000000      10.00000000       9.85000000       0.00000000       0.00000000       0.00000000
1
Lattice="20.0 0.0 0.0 0.0 20.0 0.0 0.3 0.0 20.0" Properties=species:S:1:pos:R:3:forces:R:3 energy=1.17403073 stress="7.639607170081109e-09 -0.0 3.00840739867573e-09 -0.0 6.8719015475974675e-09 -0.0 3.00840739867573e-09 -0.0 7.602158115325809e-09" free_energy=1.06802795 pbc="T T T"
Al      10.15000000      10.00000000      10.00000000      -0.00000000       0.00000000       0.00000000
1
Lattice="20.0 0.0 0.0 0.0 20.0 0.0 -0.3 0.0 20.0" Properties=species:S:1:pos:R:3:forces:R:3 energy=1.17403069 stress="7.633365660955224e-09 -0.0 -3.089547017312213e-09 -0.0 6.928075129730417e-09 -0.0 -3.089547017312213e-09 -0.0 7.595916606199926e-09" free_energy=1.06802791 pbc="T T T"
Al       9.85000000      10.00000000      10.00000000       0.00000000       0.00000000       0.00000000
1
Lattice="20.0 0.0 0.0 0.0 20.0 0.0 0.0 0.0 20.0" Properties=species:S:1:pos:R:3:forces:R:3 energy=1.17403064 stress="6.896867584101e-09 -0.0 -0.0 -0.0 6.896867584101e-09 -0.0 -0.0 -0.0 6.896867584101e-09" free_energy=1.06802786 pbc="T T T"
Al      10.01500000      10.00000000      10.00000000       0.00000000       0.00000000       0.00000000
1
Lattice="20.0 0.0 0.0 0.0 20.0 0.0 0.0 0.0 20.0" Properties=species:S:1:pos:R:3:forces:R:3 energy=1.17402994 stress="5.729705377560831e-09 0.0 -0.0 0.0 5.729705377560831e-09 -0.0 -0.0 -0.0 5.729705377560831e-09" free_energy=1.06802716 pbc="T T T"
Al       9.98500000      10.00000000      10.00000000       0.00000000       0.00000000       0.00000000
