1
Lattice="2.473329 0.0 1.427977 0.824443 2.331877 1.427977 0.0 0.0 2.855955" Properties=species:S:1:pos:R:3:forces:R:3 energy=-2.24761931 stress="-0.00965594385734779 -0.0 1.9535923564014598e-09 -0.0 -0.009655944325460976 1.3793735168202002e-09 1.9535923564014598e-09 1.3793735168202002e-09 -0.009655948401166434" free_energy=-2.2515542 pbc="T T T"
Al       0.00000000       0.00000000       0.00000000       0.00000000       0.00000000      -0.00000000
1
Lattice="2.49230683 -0.0 1.43893385 0.83076894 2.34976947 1.43893385 -0.0 -0.0 2.87786872" Properties=species:S:1:pos:R:3:forces:R:3 energy=-2.24753693 stress="0.0008314938083011129 -0.0 -1.68520746398848e-10 -0.0 0.0008314938457501677 -1.1858867339178193e-10 -1.68520746398848e-10 -1.1858867339178193e-10 0.0008314942015161879" free_energy=-2.25153675 pbc="T T T"
Al       0.00000000       0.00000000       0.00000000      -0.00000000      -0.00000000       0.00000000
1
Lattice="2.4907701 -0.0 1.43804662 0.8302567 2.34832063 1.43804662 -0.0 -0.0 2.87609426" Properties=species:S:1:pos:R:3:forces:R:3 energy=-2.24768284 stress="2.9089127500018507e-05 -0.0 -6.241509125883259e-12 -0.0 2.908913374152763e-05 -6.241509125883259e-12 -6.241509125883259e-12 -6.241509125883259e-12 2.9089146224545885e-05" free_energy=-2.25167775 pbc="T T T"
Al       0.00000000       0.00000000       0.00000000      -0.00000000       0.00000000      -0.00000000
