2
Lattice="3.372404 0.0 1.947058 1.124135 3.179533 1.947058 0.0 0.0 3.894117" Properties=species:S:1:pos:R:3:forces:R:3 energy=-7.71288088 stress="-0.002048524655391102 -2.1221131028003078e-10 3.0583394716827966e-10 -2.1221131028003078e-10 -0.0020485246741156296 2.1221131028003078e-10 3.0583394716827966e-10 2.1221131028003078e-10 -0.00204852495498354" free_energy=-7.71288088 pbc="T T T"
Al       0.00000000       0.00000000       0.00000000       0.00000000       0.00000000       0.00000000
P        1.12413475       0.79488325       1.94705825       0.00000000       0.00000000       0.00000000
2
Lattice="3.37936215 0.0 1.95107529 1.12645438 3.18609321 1.95107529 0.0 0.0 3.90215158" Properties=species:S:1:pos:R:3:forces:R:3 energy=-7.71190362 stress="0.0011816574998171389 1.2483018251766517e-10 -1.7476225552473124e-10 1.2483018251766517e-10 0.0011816575123001572 -1.2483018251766517e-10 -1.7476225552473124e-10 -1.2483018251766517e-10 0.0011816576745793943" free_energy=-7.71190362 pbc="T T T"
Al       0.00000000       0.00000000       0.00000000       0.00000000       0.00000000       0.00000000
P        1.12645413       0.79652330       1.95107554       0.00000000       0.00000000       0.00000000
2
Lattice="3.37680675 0.0 1.94959993 1.12560258 3.18368395 1.94959993 0.0 0.0 3.89920085" Properties=species:S:1:pos:R:3:forces:R:3 energy=-7.71235751 stress="5.64330416673123e-06 -0.0 -0.0 -0.0 5.64330416673123e-06 -0.0 -0.0 -0.0 5.643310408240355e-06" free_energy=-7.71235751 pbc="T T T"
Al       0.00000000       0.00000000       0.00000000       0.00000000       0.00000000       0.00000000
P        1.12560233       0.79592099       1.94960018       0.00000000       0.00000000       0.00000000
