16
Lattice="0.0 9.136793 0.0 8.23821 0.0 0.0 0.0 -0.051549 -5.507016" Properties=species:S:1:pos:R:3:forces:R:3 energy=-60.61554828 stress="3.8017687444213146e-05 -0.0 -0.0 -0.0 3.0080179285062755e-05 -5.0960424050646595e-06 -0.0 -5.0960424050646595e-06 1.6346506159179127e-05" free_energy=-60.61554828 pbc="T T T"
P        0.00000000       1.29788108      -4.20210653       0.00000000      -0.00015033      -0.00107657
P        0.00000000       7.78736292      -1.30490947       0.00000000       0.00015033       0.00107657
P        0.00000000       2.54232235      -2.36402980       0.00000000       0.00079513      -0.00062898
P        0.00000000       6.54292165      -3.14298620       0.00000000      -0.00079513       0.00062898
P        7.12767458       3.22563749      -4.16569965       0.00049392       0.00028006       0.00051485
P        7.12767458       5.85960651      -1.34131635       0.00049392      -0.00028006      -0.00051485
P        1.11053542       5.85960651      -1.34131635      -0.00049392      -0.00028006      -0.00051485
P        1.11053542       3.22563749      -4.16569965      -0.00049392       0.00028006       0.00051485
P        4.11910500       5.86627758      -4.20210653      -0.00000000      -0.00015033      -0.00107657
P        4.11910500       3.21896642      -1.30490947       0.00000000       0.00015033       0.00107657
P        4.11910500       7.11071885      -2.36402980      -0.00000000       0.00079513      -0.00062898
P        4.11910500       1.97452515      -3.14298620       0.00000000      -0.00079513       0.00062898
P        3.00856958       7.79403399      -4.16569965       0.00049392       0.00028006       0.00051485
P        3.00856958       1.29121001      -1.34131635       0.00049392      -0.00028006      -0.00051485
P        5.22964042       1.29121001      -1.34131635      -0.00049392      -0.00028006      -0.00051485
P        5.22964042       7.79403399      -4.16569965      -0.00049392       0.00028006       0.00051485
16
Lattice="0.0 9.136793 0.0 8.36178315 0.0 0.0 0.0 -0.051549 -5.507016" Properties=species:S:1:pos:R:3:forces:R:3 energy=-60.57637659 stress="0.010429611943567315 -0.0 -0.0 -0.0 0.0022735135706706227 -0.0007717812904937878 -0.0 -0.0007717812904937878 0.0018682512846214165" free_energy=-60.57637659 pbc="T T T"
P        0.00000000       1.29788108      -4.20210653       0.00000000       0.09830846      -0.00664046
P        0.00000000       7.78736292      -1.30490947       0.00000000      -0.09830846       0.00664046
P        0.00000000       2.54232235      -2.36402980       0.00000000       0.02761299      -0.08650364
P        0.00000000       6.54292165      -3.14298620       0.00000000      -0.02761299       0.08650364
P        7.23458970       3.22563749      -4.16569965       0.40111097      -0.08218902       0.05496690
P        7.23458970       5.85960651      -1.34131635       0.40111097       0.08218902      -0.05496690
P        1.12719345       5.85960651      -1.34131635      -0.40111097       0.08218902      -0.05496690
P        1.12719345       3.22563749      -4.16569965      -0.40111097      -0.08218902       0.05496690
P        4.18089158       5.86627758      -4.20210653       0.00000000       0.09830846      -0.00664046
P        4.18089158       3.21896642      -1.30490947       0.00000000      -0.09830846       0.00664046
P        4.18089158       7.11071885      -2.36402980       0.00000000       0.02761299      -0.08650364
P        4.18089158       1.97452515      -3.14298620       0.00000000      -0.02761299       0.08650364
P        3.05369812       7.79403399      -4.16569965       0.40111097      -0.08218902       0.05496690
P        3.05369812       1.29121001      -1.34131635       0.40111097       0.08218902      -0.05496690
P        5.30808503       1.29121001      -1.34131635      -0.40111097       0.08218902      -0.05496690
P        5.30808503       7.79403399      -4.16569965      -0.40111097      -0.08218902       0.05496690
16
Lattice="0.0 9.136793 0.0 8.11463685 0.0 0.0 0.0 -0.051549 -5.507016" Properties=species:S:1:pos:R:3:forces:R:3 energy=-60.58667765 stress="-0.011645075753685596 -0.0 -0.0 -0.0 -0.0023755567149017285 0.0008320593639260275 -0.0 0.0008320593639260275 -0.001977837067936824" free_energy=-60.58667765 pbc="T T T"
P        0.00000000       1.29788108      -4.20210653       0.00000000      -0.10077098       0.00504843
P        0.00000000       7.78736292      -1.30490947       0.00000000       0.10077098      -0.00504843
P        0.00000000       2.54232235      -2.36402980       0.00000000      -0.02581908       0.08535145
P        0.00000000       6.54292165      -3.14298620       0.00000000       0.02581908      -0.08535145
P        7.02075946       3.22563749      -4.16569965      -0.44775735       0.08556732      -0.05605470
P        7.02075946       5.85960651      -1.34131635      -0.44775735      -0.08556732       0.05605470
P        1.09387739       5.85960651      -1.34131635       0.44775735      -0.08556732       0.05605470
P        1.09387739       3.22563749      -4.16569965       0.44775735       0.08556732      -0.05605470
P        4.05731843       5.86627758      -4.20210653       0.00000000      -0.10077098       0.00504843
P        4.05731843       3.21896642      -1.30490947       0.00000000       0.10077098      -0.00504843
P        4.05731843       7.11071885      -2.36402980      -0.00000000      -0.02581908       0.08535145
P        4.05731843       1.97452515      -3.14298620       0.00000000       0.02581908      -0.08535145
P        2.96344103       7.79403399      -4.16569965      -0.44775735       0.08556732      -0.05605470
P        2.96344103       1.29121001      -1.34131635      -0.44775735      -0.08556732       0.05605470
P        5.15119582       1.29121001      -1.34131635       0.44775735      -0.08556732       0.05605470
P        5.15119582       7.79403399      -4.16569965       0.44775735       0.08556732      -0.05605470
16
Lattice="0.0 9.27384489 0.0 8.23821 0.0 0.0 0.0 -0.05232223 -5.507016" Properties=species:S:1:pos:R:3:forces:R:3 energy=-60.57633324 stress="0.0021966350927294723 -0.0 -0.0 -0.0 0.010399603560361728 0.0008529609733773491 -0.0 0.0008529609733773491 0.0021889949550311155" free_energy=-60.57633324 pbc="T T T"
P        0.00000000       1.31734930      -4.20210653       0.00000000       0.48173750       0.07616020
P        0.00000000       7.90417336      -1.30490947       0.00000000      -0.48173750      -0.07616020
P        0.00000000       2.58045719      -2.36402980       0.00000000      -0.01131449      -0.09422228
P        0.00000000       6.64106547      -3.14298620      -0.00000000       0.01131449       0.09422228
P        7.12767458       3.27402206      -4.16569965       0.09818608      -0.21380490       0.01558570
P        7.12767458       5.94750060      -1.34131635       0.09818608       0.21380490      -0.01558570
P        1.11053542       5.94750060      -1.34131635      -0.09818608       0.21380490      -0.01558570
P        1.11053542       3.27402206      -4.16569965      -0.09818608      -0.21380490       0.01558570
P        4.11910500       5.95427175      -4.20210653      -0.00000000       0.48173750       0.07616020
P        4.11910500       3.26725091      -1.30490947      -0.00000000      -0.48173750      -0.07616020
P        4.11910500       7.21737963      -2.36402980       0.00000000      -0.01131449      -0.09422228
P        4.11910500       2.00414303      -3.14298620      -0.00000000       0.01131449       0.09422228
P        3.00856958       7.91094450      -4.16569965       0.09818608      -0.21380490       0.01558570
P        3.00856958       1.31057816      -1.34131635       0.09818608       0.21380490      -0.01558570
P        5.22964042       1.31057816      -1.34131635      -0.09818608       0.21380490      -0.01558570
P        5.22964042       7.91094450      -4.16569965      -0.09818608      -0.21380490       0.01558570
16
Lattice="0.0 8.99974111 0.0 8.23821 0.0 0.0 0.0 -0.05077576 -5.507016" Properties=species:S:1:pos:R:3:forces:R:3 energy=-60.58748103 stress="-0.0024659931300378144 -0.0 -0.0 -0.0 -0.011425987517443122 -0.0009688884045910553 -0.0 -0.0009688884045910553 -0.002333818413935503" free_energy=-60.58748103 pbc="T T T"
P        0.00000000       1.27841287      -4.20210653      -0.00000000      -0.52753778      -0.08331511
P        0.00000000       7.67055248      -1.30490947      -0.00000000       0.52753778       0.08331511
P        0.00000000       2.50418752      -2.36402980      -0.00000000       0.01126616       0.09310311
P        0.00000000       6.44477783      -3.14298620      -0.00000000      -0.01126616      -0.09310311
P        7.12767458       3.17725294      -4.16569965      -0.10969675       0.23436446      -0.01383303
P        7.12767458       5.77171241      -1.34131635      -0.10969675      -0.23436446       0.01383303
P        1.11053542       5.77171241      -1.34131635       0.10969675      -0.23436446       0.01383303
P        1.11053542       3.17725294      -4.16569965       0.10969675       0.23436446      -0.01383303
P        4.11910500       5.77828342      -4.20210653      -0.00000000      -0.52753778      -0.08331511
P        4.11910500       3.17068193      -1.30490947      -0.00000000       0.52753778       0.08331511
P        4.11910500       7.00405808      -2.36402980      -0.00000000       0.01126616       0.09310311
P        4.11910500       1.94490727      -3.14298620      -0.00000000      -0.01126616      -0.09310311
P        3.00856958       7.67712349      -4.16569965      -0.10969675       0.23436446      -0.01383303
P        3.00856958       1.27184186      -1.34131635      -0.10969675      -0.23436446       0.01383303
P        5.22964042       1.27184186      -1.34131635       0.10969675      -0.23436446       0.01383303
P        5.22964042       7.67712349      -4.16569965       0.10969675       0.23436446      -0.01383303
16
Lattice="0.0 9.136793 0.0 8.23821 0.0 0.0 0.0 -0.051549 -5.58962124" Properties=species:S:1:pos:R:3:forces:R:3 energy=-60.57581146 stress="0.0018343479750269492 -0.0 -0.0 -0.0 0.002144449766271362 -0.0001260326903903852 -0.0 -0.0001260326903903852 0.010602850084978598" free_energy=-60.57581146 pbc="T T T"
P        0.00000000       1.29788108      -4.26513813       0.00000000       0.08328982       0.17466364
P        0.00000000       7.78736292      -1.32448311      -0.00000000      -0.08328982      -0.17466364
P        0.00000000       2.54232235      -2.39949025       0.00000000       0.00629805      -0.53107647
P        0.00000000       6.54292165      -3.19013099       0.00000000      -0.00629805       0.53107647
P        7.12767458       3.22563749      -4.22818514       0.06497081      -0.04343593       0.16520927
P        7.12767458       5.85960651      -1.36143610       0.06497081       0.04343593      -0.16520927
P        1.11053542       5.85960651      -1.36143610      -0.06497081       0.04343593      -0.16520927
P        1.11053542       3.22563749      -4.22818514      -0.06497081      -0.04343593       0.16520927
P        4.11910500       5.86627758      -4.26513813      -0.00000000       0.08328982       0.17466364
P        4.11910500       3.21896642      -1.32448311      -0.00000000      -0.08328982      -0.17466364
P        4.11910500       7.11071885      -2.39949025       0.00000000       0.00629805      -0.53107647
P        4.11910500       1.97452515      -3.19013099       0.00000000      -0.00629805       0.53107647
P        3.00856958       7.79403399      -4.22818514       0.06497081      -0.04343593       0.16520927
P        3.00856958       1.29121001      -1.36143610       0.06497081       0.04343593      -0.16520927
P        5.22964042       1.29121001      -1.36143610      -0.06497081       0.04343593      -0.16520927
P        5.22964042       7.79403399      -4.22818514      -0.06497081      -0.04343593       0.16520927
16
Lattice="0.0 9.136793 0.0 8.23821 0.0 0.0 0.0 -0.051549 -5.42441076" Properties=species:S:1:pos:R:3:forces:R:3 energy=-60.58677845 stress="-0.002017305325792456 -0.0 -0.0 -0.0 -0.0023828005417366282 0.00012045115219796373 -0.0 0.00012045115219796373 -0.011629248278942309" free_energy=-60.58677845 pbc="T T T"
P        0.00000000       1.29788108      -4.13907493      -0.00000000      -0.09386527      -0.19224406
P        0.00000000       7.78736292      -1.28533583      -0.00000000       0.09386527       0.19224406
P        0.00000000       2.54232235      -2.32856935      -0.00000000      -0.00477221       0.57497333
P        0.00000000       6.54292165      -3.09584141      -0.00000000       0.00477221      -0.57497333
P        7.12767458       3.22563749      -4.10321415      -0.07212215       0.04893911      -0.17790623
P        7.12767458       5.85960651      -1.32119661      -0.07212215      -0.04893911       0.17790623
P        1.11053542       5.85960651      -1.32119661       0.07212215      -0.04893911       0.17790623
P        1.11053542       3.22563749      -4.10321415       0.07212215       0.04893911      -0.17790623
P        4.11910500       5.86627758      -4.13907493      -0.00000000      -0.09386527      -0.19224406
P        4.11910500       3.21896642      -1.28533583      -0.00000000       0.09386527       0.19224406
P        4.11910500       7.11071885      -2.32856935      -0.00000000      -0.00477221       0.57497333
P        4.11910500       1.97452515      -3.09584141      -0.00000000       0.00477221      -0.57497333
P        3.00856958       7.79403399      -4.10321415      -0.07212215       0.04893911      -0.17790623
P        3.00856958       1.29121001      -1.32119661      -0.07212215      -0.04893911       0.17790623
P        5.22964042       1.29121001      -1.32119661       0.07212215      -0.04893911       0.17790623
P        5.22964042       7.79403399      -4.10321415       0.07212215       0.04893911      -0.17790623
16
Lattice="0.0 9.136793 0.0 8.23821 0.12357315 0.0 0.0 -0.051549 -5.507016" Properties=species:S:1:pos:R:3:forces:R:3 energy=-60.60415235 stress="-1.817521215948079e-06 0.0036873190529082525 -0.0009594139060851287 0.0036873190529082525 -5.1961574597456515e-05 -1.9796656366239248e-05 -0.0009594139060851287 -1.9796656366239248e-05 6.5751365131890964e-06" free_energy=-60.60415235 pbc="T T T"
P        0.00000000       1.29788108      -4.20210653       0.16317294      -0.00734343      -0.00154852
P        0.00000000       7.78736292      -1.30490947      -0.16317294       0.00734343       0.00154852
P        0.00000000       2.54232235      -2.36402980       0.03347871       0.00148023      -0.00011930
P        0.00000000       6.54292165      -3.14298620      -0.03347871      -0.00148023       0.00011930
P        7.12767458       3.33255261      -4.16569965      -0.11801681       0.15647235      -0.03574915
P        7.12767458       5.96652163      -1.34131635       0.11760430       0.14968734      -0.03634245
P        1.11053542       5.87626454      -1.34131635       0.11801681      -0.15647235       0.03574915
P        1.11053542       3.24229552      -4.16569965      -0.11760430      -0.14968734       0.03634245
P        4.11910500       5.92806416      -4.20210653       0.16317294      -0.00734343      -0.00154852
P        4.11910500       3.28075299      -1.30490947      -0.16317294       0.00734343       0.00154852
P        4.11910500       7.17250543      -2.36402980       0.03347871       0.00148023      -0.00011930
P        4.11910500       2.03631172      -3.14298620      -0.03347871      -0.00148023       0.00011930
P        3.00856958       7.83916254      -4.16569965      -0.11801681       0.15647235      -0.03574915
P        3.00856958       1.33633855      -1.34131635       0.11760430       0.14968734      -0.03634245
P        5.22964042       1.36965461      -1.34131635       0.11801681      -0.15647235       0.03574915
P        5.22964042       7.87247860      -4.16569965      -0.11760430      -0.14968734       0.03634245
16
Lattice="0.0 9.136793 0.0 8.23821 -0.12357315 0.0 0.0 -0.051549 -5.507016" Properties=species:S:1:pos:R:3:forces:R:3 energy=-60.60415211 stress="-1.8509382558080579e-06 -0.0036874268812199114 0.0009595062180051006 -0.0036874268812199114 -5.197074337436244e-05 -1.9789409974144094e-05 0.0009595062180051006 -1.9789409974144094e-05 6.556199774501167e-06" free_energy=-60.60415211 pbc="T T T"
P        0.00000000       1.29788108      -4.20210653      -0.16317827      -0.00734268      -0.00154849
P        0.00000000       7.78736292      -1.30490947       0.16317827       0.00734268       0.00154849
P        0.00000000       2.54232235      -2.36402980      -0.03348306       0.00148050      -0.00011929
P        0.00000000       6.54292165      -3.14298620       0.03348306      -0.00148050       0.00011929
P        7.12767458       3.11872237      -4.16569965       0.11760159      -0.14968948       0.03634170
P        7.12767458       5.75269139      -1.34131635      -0.11801455      -0.15647484       0.03574887
P        1.11053542       5.84294848      -1.34131635      -0.11760159       0.14968948      -0.03634170
P        1.11053542       3.20897946      -4.16569965       0.11801455       0.15647484      -0.03574887
P        4.11910500       5.80449101      -4.20210653      -0.16317827      -0.00734268      -0.00154849
P        4.11910500       3.15717984      -1.30490947       0.16317827       0.00734268       0.00154849
P        4.11910500       7.04893228      -2.36402980      -0.03348306       0.00148050      -0.00011929
P        4.11910500       1.91273857      -3.14298620       0.03348306      -0.00148050       0.00011929
P        3.00856958       7.74890545      -4.16569965       0.11760159      -0.14968948       0.03634170
P        3.00856958       1.24608146      -1.34131635      -0.11801455      -0.15647484       0.03574887
P        5.22964042       1.21276540      -1.34131635      -0.11760159       0.14968948      -0.03634170
P        5.22964042       7.71558939      -4.16569965       0.11801455       0.15647484      -0.03574887
16
Lattice="0.0 9.136793 0.1370519 8.23821 0.0 0.0 0.0 -0.051549 -5.50778923" Properties=species:S:1:pos:R:3:forces:R:3 energy=-60.6039726 stress="-0.0007626737552754085 -0.0 -0.0 -0.0 0.0008882060701206807 0.003739459278221419 -0.0 0.003739459278221419 -0.000183741146998517" free_energy=-60.6039726 pbc="T T T"
P        0.00000000       1.29788108      -4.18263831      -0.00000000       0.10360415       0.15155875
P        0.00000000       7.78736292      -1.18809902      -0.00000000      -0.10360415      -0.15155875
P        0.00000000       2.54232235      -2.32589496      -0.00000000      -0.16205343       0.01274564
P        0.00000000       6.54292165      -3.04484237      -0.00000000       0.16205343      -0.01274564
P        7.12767458       3.22563749      -4.11731508      -0.02765222       0.04196678      -0.08149415
P        7.12767458       5.85960651      -1.25342225      -0.02765222      -0.04196678       0.08149415
P        1.11053542       5.85960651      -1.25342225       0.02765222      -0.04196678       0.08149415
P        1.11053542       3.22563749      -4.11731508       0.02765222       0.04196678      -0.08149415
P        4.11910500       5.86627758      -4.11411236      -0.00000000       0.10360415       0.15155875
P        4.11910500       3.21896642      -1.25662497      -0.00000000      -0.10360415      -0.15155875
P        4.11910500       7.11071885      -2.25736901      -0.00000000      -0.16205343       0.01274564
P        4.11910500       1.97452515      -3.11336832      -0.00000000       0.16205343      -0.01274564
P        3.00856958       7.79403399      -4.04878913      -0.02765222       0.04196678      -0.08149415
P        3.00856958       1.29121001      -1.32194820      -0.02765222      -0.04196678       0.08149415
P        5.22964042       1.29121001      -1.32194820       0.02765222      -0.04196678       0.08149415
P        5.22964042       7.79403399      -4.04878913       0.02765222       0.04196678      -0.08149415
16
Lattice="0.0 9.136793 -0.1370519 8.23821 0.0 0.0 0.0 -0.051549 -5.50624277" Properties=species:S:1:pos:R:3:forces:R:3 energy=-60.60382728 stress="0.0008390520137091742 -0.0 -0.0 -0.0 -0.000930961300168786 -0.003792397280748038 -0.0 -0.003792397280748038 6.197122009583627e-05" free_energy=-60.60382728 pbc="T T T"
P        0.00000000       1.29788108      -4.22157475       0.00000000      -0.10610446      -0.16041958
P        0.00000000       7.78736292      -1.42171992       0.00000000       0.10610446       0.16041958
P        0.00000000       2.54232235      -2.40216464       0.00000000       0.16752233      -0.00135323
P        0.00000000       6.54292165      -3.24113003      -0.00000000      -0.16752233       0.00135323
P        7.12767458       3.22563749      -4.21408422       0.02887488      -0.04272697       0.08050376
P        7.12767458       5.85960651      -1.42921045       0.02887488       0.04272697      -0.08050376
P        1.11053542       5.85960651      -1.42921045      -0.02887488       0.04272697      -0.08050376
P        1.11053542       3.22563749      -4.21408422      -0.02887488      -0.04272697       0.08050376
P        4.11910500       5.86627758      -4.29010070       0.00000000      -0.10610446      -0.16041958
P        4.11910500       3.21896642      -1.35319397       0.00000000       0.10610446       0.16041958
P        4.11910500       7.11071885      -2.47069059       0.00000000       0.16752233      -0.00135323
P        4.11910500       1.97452515      -3.17260408       0.00000000      -0.16752233       0.00135323
P        3.00856958       7.79403399      -4.28261017       0.02887488      -0.04272697       0.08050376
P        3.00856958       1.29121001      -1.36068450       0.02887488       0.04272697      -0.08050376
P        5.22964042       1.29121001      -1.36068450      -0.02887488       0.04272697      -0.08050376
P        5.22964042       7.79403399      -4.28261017      -0.02887488      -0.04272697       0.08050376
16
Lattice="0.0 9.136793 0.0 8.23821 0.0 0.0 -0.08260524 -0.051549 -5.507016" Properties=species:S:1:pos:R:3:forces:R:3 energy=-60.6045712 stress="3.2612066186504674e-05 -0.0009592287080263455 0.003542839563571792 -0.0009592287080263455 3.1453791888959766e-05 4.6664156141954366e-05 0.003542839563571792 4.6664156141954366e-05 -8.76418231155355e-05" free_energy=-60.6045712 pbc="T T T"
P       -0.06303160       1.29788108      -4.20210653       0.01870754       0.00081608       0.00007128
P       -0.01957364       7.78736292      -1.30490947      -0.01870754      -0.00081608      -0.00007128
P       -0.03546045       2.54232235      -2.36402980      -0.15913717      -0.00184044       0.00406827
P       -0.04714479       6.54292165      -3.14298620       0.15913717       0.00184044      -0.00406827
P        7.06518908       3.22563749      -4.16569965       0.08233749      -0.03272416       0.12710055
P        7.10755483       5.85960651      -1.34131635      -0.08269477      -0.03590702       0.13186613
P        1.09041568       5.85960651      -1.34131635      -0.08233749       0.03272416      -0.12710055
P        1.04804993       3.22563749      -4.16569965       0.08269477       0.03590702      -0.13186613
P        4.05607340       5.86627758      -4.20210653       0.01870754       0.00081608       0.00007128
P        4.09953136       3.21896642      -1.30490947      -0.01870754      -0.00081608      -0.00007128
P        4.08364455       7.11071885      -2.36402980      -0.15913717      -0.00184044       0.00406827
P        4.07196021       1.97452515      -3.14298620       0.15913717       0.00184044      -0.00406827
P        2.94608408       7.79403399      -4.16569965       0.08233749      -0.03272416       0.12710055
P        2.98844983       1.29121001      -1.34131635      -0.08269477      -0.03590702       0.13186613
P        5.20952068       1.29121001      -1.34131635      -0.08233749       0.03272416      -0.12710055
P        5.16715493       7.79403399      -4.16569965       0.08269477       0.03590702      -0.13186613
16
Lattice="0.0 9.136793 0.0 8.23821 0.0 0.0 0.08260524 -0.051549 -5.507016" Properties=species:S:1:pos:R:3:forces:R:3 energy=-60.60457135 stress="3.277055682773823e-05 0.0009593318177571052 -0.0035430292243096 0.0009593318177571052 3.139940961994594e-05 4.653065650326084e-05 -0.0035430292243096 4.653065650326084e-05 -8.761397974332494e-05" free_energy=-60.60457135 pbc="T T T"
P        0.06303160       1.29788108      -4.20210653      -0.01870736       0.00081819       0.00006976
P        0.01957364       7.78736292      -1.30490947       0.01870736      -0.00081819      -0.00006976
P        0.03546045       2.54232235      -2.36402980       0.15913958      -0.00183685       0.00406835
P        0.04714479       6.54292165      -3.14298620      -0.15913958       0.00183685      -0.00406835
P        7.19016007       3.22563749      -4.16569965      -0.08269173       0.03590656      -0.13186774
P        7.14779432       5.85960651      -1.34131635       0.08233646       0.03272104      -0.12710402
P        1.13065517       5.85960651      -1.34131635       0.08269173      -0.03590656       0.13186774
P        1.17302092       3.22563749      -4.16569965      -0.08233646      -0.03272104       0.12710402
P        4.18213660       5.86627758      -4.20210653      -0.01870736       0.00081819       0.00006976
P        4.13867864       3.21896642      -1.30490947       0.01870736      -0.00081819      -0.00006976
P        4.15456545       7.11071885      -2.36402980       0.15913958      -0.00183685       0.00406835
P        4.16624979       1.97452515      -3.14298620      -0.15913958       0.00183685      -0.00406835
P        3.07105507       7.79403399      -4.16569965      -0.08269173       0.03590656      -0.13186774
P        3.02868932       1.29121001      -1.34131635       0.08233646       0.03272104      -0.12710402
P        5.24976017       1.29121001      -1.34131635       0.08269173      -0.03590656       0.13186774
P        5.29212592       7.79403399      -4.16569965      -0.08233646      -0.03272104       0.12710402
16
Lattice="0.0 9.136793 0.0 8.23821 0.0 0.0 0.0 -0.051549 -5.507016" Properties=species:S:1:pos:R:3:forces:R:3 energy=-60.61487335 stress="3.9661126729131216e-05 -0.00039351014851608053 -4.500489463140218e-05 -0.00039351014851608053 2.182274385113784e-05 -4.466736005938353e-06 -4.500489463140218e-05 -4.466736005938353e-06 1.741984600053902e-05" free_energy=-60.61487335 pbc="T T T"
P        0.01499997       1.29788108      -4.20210653      -0.09028405      -0.00186750      -0.00083273
P        0.00000000       7.78736292      -1.30490947      -0.00127430       0.00017752       0.00108328
P        0.00000000       2.54232235      -2.36402980       0.01036535       0.00060540      -0.00089790
P        0.00000000       6.54292165      -3.14298620       0.00038984      -0.00080565       0.00061078
P        7.12767458       3.22563749      -4.16569965       0.03999344      -0.07097328      -0.00853231
P        7.12767458       5.85960651      -1.34131635       0.00044522       0.00003220       0.00016793
P        1.11053542       5.85960651      -1.34131635      -0.00055303      -0.00062019      -0.00119622
P        1.11053542       3.22563749      -4.16569965       0.03950867       0.07346566       0.00959751
P        4.11910500       5.86627758      -4.20210653      -0.00029238      -0.00015592      -0.00107827
P        4.11910500       3.21896642      -1.30490947       0.00008340       0.00016591       0.00108558
P        4.11910500       7.11071885      -2.36402980      -0.00008749       0.00079718      -0.00062936
P        4.11910500       1.97452515      -3.14298620      -0.00040963      -0.00079400       0.00062034
P        3.00856958       7.79403399      -4.16569965       0.00123101      -0.00083847       0.00034837
P        3.00856958       1.29121001      -1.34131635       0.00080937       0.00038125      -0.00056644
P        5.22964042       1.29121001      -1.34131635      -0.00018046      -0.00094997      -0.00045987
P        5.22964042       7.79403399      -4.16569965       0.00025503       0.00137986       0.00067932
16
Lattice="0.0 9.136793 0.0 8.23821 0.0 0.0 0.0 -0.051549 -5.507016" Properties=species:S:1:pos:R:3:forces:R:3 energy=-60.61487336 stress="3.965826811795156e-05 0.0003933810803488664 4.514524120560679e-05 0.0003933810803488664 2.182055932294378e-05 -4.467378881378319e-06 4.514524120560679e-05 -4.467378881378319e-06 1.7422186566461228e-05" free_energy=-60.61487336 pbc="T T T"
P       -0.01499997       1.29788108      -4.20210653       0.09023799      -0.00186700      -0.00083310
P        0.00000000       7.78736292      -1.30490947       0.00127455       0.00017696       0.00108329
P        0.00000000       2.54232235      -2.36402980      -0.01037660       0.00060700      -0.00089802
P        0.00000000       6.54292165      -3.14298620      -0.00038215      -0.00080653       0.00061095
P        7.12767458       3.22563749      -4.16569965      -0.03951066       0.07344786       0.00959804
P        7.12767458       5.85960651      -1.34131635       0.00055802      -0.00061746      -0.00119363
P        1.11053542       5.85960651      -1.34131635      -0.00044062       0.00002906       0.00016473
P        1.11053542       3.22563749      -4.16569965      -0.03999536      -0.07095388      -0.00853181
P        4.11910500       5.86627758      -4.20210653       0.00029973      -0.00015632      -0.00107844
P        4.11910500       3.21896642      -1.30490947      -0.00007565       0.00016630       0.00108587
P        4.11910500       7.11071885      -2.36402980       0.00008814       0.00079722      -0.00062894
P        4.11910500       1.97452515      -3.14298620       0.00041581      -0.00079429       0.00061962