16
Lattice="0.0 9.136825 0.0 8.238223 0.0 0.0 0.0 -0.051529 -5.506995" Properties=species:S:1:pos:R:3:forces:R:3 energy=-60.61554706 stress="3.9157936263402505e-05 -0.0 -0.0 -0.0 2.972870118165689e-05 -5.552171891984208e-06 -0.0 -5.552171891984208e-06 1.7831947882084587e-05" free_energy=-60.61554706 pbc="T T T"
P        0.00000000       1.29791027      -4.20207949       0.00000000      -0.00017745      -0.00106758
P        0.00000000       7.78738573      -1.30491551       0.00000000       0.00017745       0.00106758
P        0.00000000       2.54234926      -2.36399876       0.00000000       0.00080486      -0.00071713
P        0.00000000       6.54294674      -3.14299624       0.00000000      -0.00080486       0.00071713
P        7.12768582       3.22566416      -4.16567275       0.00054282       0.00027983       0.00054214
P        7.12768582       5.85963184      -1.34132225       0.00054282      -0.00027983      -0.00054214
P        1.11053718       5.85963184      -1.34132225      -0.00054282      -0.00027983      -0.00054214
P        1.11053718       3.22566416      -4.16567275      -0.00054282       0.00027983       0.00054214
P        4.11911150       5.86632277      -4.20207949       0.00000000      -0.00017745      -0.00106758
P        4.11911150       3.21897323      -1.30491551      -0.00000000       0.00017745       0.00106758
P        4.11911150       7.11076176      -2.36399876       0.00000000       0.00080486      -0.00071713
P        4.11911150       1.97453424      -3.14299624      -0.00000000      -0.00080486       0.00071713
P        3.00857432       7.79407666      -4.16567275       0.00054282       0.00027983       0.00054214
P        3.00857432       1.29121934      -1.34132225       0.00054282      -0.00027983      -0.00054214
P        5.22964868       1.29121934      -1.34132225      -0.00054282      -0.00027983      -0.00054214
P        5.22964868       7.79407666      -4.16567275      -0.00054282       0.00027983       0.00054214
16
Lattice="0.0 9.136825 0.0 8.36179634 0.0 0.0 0.0 -0.051529 -5.506995" Properties=species:S:1:pos:R:3:forces:R:3 energy=-60.57636858 stress="0.010430665391719092 -0.0 -0.0 -0.0 0.002273178020898506 -0.0007722285632792578 -0.0 -0.0007722285632792578 0.0018696706537287156" free_energy=-60.57636858 pbc="T T T"
P        0.00000000       1.29791027      -4.20207949       0.00000000       0.09828242      -0.00663139
P        0.00000000       7.78738573      -1.30491551       0.00000000      -0.09828242       0.00663139
P        0.00000000       2.54234926      -2.36399876       0.00000000       0.02762214      -0.08658988
P        0.00000000       6.54294674      -3.14299624      -0.00000000      -0.02762214       0.08658988
P        7.23460111       3.22566416      -4.16567275       0.40115567      -0.08218968       0.05499337
P        7.23460111       5.85963184      -1.34132225       0.40115567       0.08218968      -0.05499337
P        1.12719523       5.85963184      -1.34132225      -0.40115567       0.08218968      -0.05499337
P        1.12719523       3.22566416      -4.16567275      -0.40115567      -0.08218968       0.05499337
P        4.18089817       5.86632277      -4.20207949      -0.00000000       0.09828242      -0.00663139
P        4.18089817       3.21897323      -1.30491551       0.00000000      -0.09828242       0.00663139
P        4.18089817       7.11076176      -2.36399876       0.00000000       0.02762214      -0.08658988
P        4.18089817       1.97453424      -3.14299624       0.00000000      -0.02762214       0.08658988
P        3.05370294       7.79407666      -4.16567275       0.40115567      -0.08218968       0.05499337
P        3.05370294       1.29121934      -1.34132225       0.40115567       0.08218968      -0.05499337
P        5.30809340       1.29121934      -1.34132225      -0.40115567       0.08218968      -0.05499337
P        5.30809340       7.79407666      -4.16567275      -0.40115567      -0.08218968       0.05499337
16
Lattice="0.0 9.136825 0.0 8.11464965 0.0 0.0 0.0 -0.051529 -5.506995" Properties=species:S:1:pos:R:3:forces:R:3 energy=-60.58668372 stress="-0.011643840153331492 -0.0 -0.0 -0.0 -0.0023759221302950126 0.0008315918748924988 -0.0 0.0008315918748924988 -0.0019762794431608774" free_energy=-60.58668372 pbc="T T T"
P        0.00000000       1.29791027      -4.20207949       0.00000000      -0.10079919       0.00505731
P        0.00000000       7.78738573      -1.30491551       0.00000000       0.10079919      -0.00505731
P        0.00000000       2.54234926      -2.36399876       0.00000000      -0.02580877       0.08526131
P        0.00000000       6.54294674      -3.14299624       0.00000000       0.02580877      -0.08526131
P        7.02077053       3.22566416      -4.16567275      -0.44770376       0.08556754      -0.05602656
P        7.02077053       5.85963184      -1.34132225      -0.44770376      -0.08556754       0.05602656
P        1.09387912       5.85963184      -1.34132225       0.44770376      -0.08556754       0.05602656
P        1.09387912       3.22566416      -4.16567275       0.44770376       0.08556754      -0.05602656
P        4.05732483       5.86632277      -4.20207949       0.00000000      -0.10079919       0.00505731
P        4.05732483       3.21897323      -1.30491551       0.00000000       0.10079919      -0.00505731
P        4.05732483       7.11076176      -2.36399876       0.00000000      -0.02580877       0.08526131
P        4.05732483       1.97453424      -3.14299624       0.00000000       0.02580877      -0.08526131
P        2.96344571       7.79407666      -4.16567275      -0.44770376       0.08556754      -0.05602656
P        2.96344571       1.29121934      -1.34132225      -0.44770376      -0.08556754       0.05602656
P        5.15120394       1.29121934      -1.34132225       0.44770376      -0.08556754       0.05602656
P        5.15120394       7.79407666      -4.16567275       0.44770376       0.08556754      -0.05602656
16
Lattice="0.0 9.27387737 0.0 8.238223 0.0 0.0 0.0 -0.05230193 -5.506995" Properties=species:S:1:pos:R:3:forces:R:3 energy=-60.57633408 stress="0.0021977661602887374 -0.0 -0.0 -0.0 0.01039928642928304 0.0008525320693532368 -0.0 0.0008525320693532368 0.002190408026455706" free_energy=-60.57633408 pbc="T T T"
P        0.00000000       1.31737892      -4.20207949      -0.00000000       0.48171185       0.07616953
P        0.00000000       7.90419652      -1.30491551      -0.00000000      -0.48171185      -0.07616953
P        0.00000000       2.58048450      -2.36399876      -0.00000000      -0.01130469      -0.09430767
P        0.00000000       6.64109094      -3.14299624       0.00000000       0.01130469       0.09430767
P        7.12768582       3.27404912      -4.16567275       0.09823601      -0.21380494       0.01561264
P        7.12768582       5.94752632      -1.34132225       0.09823601       0.21380494      -0.01561264
P        1.11053718       5.94752632      -1.34132225      -0.09823601       0.21380494      -0.01561264
P        1.11053718       3.27404912      -4.16567275      -0.09823601      -0.21380494       0.01561264
P        4.11911150       5.95431761      -4.20207949       0.00000000       0.48171185       0.07616953
P        4.11911150       3.26725783      -1.30491551      -0.00000000      -0.48171185      -0.07616953
P        4.11911150       7.21742319      -2.36399876      -0.00000000      -0.01130469      -0.09430767
P        4.11911150       2.00415225      -3.14299624       0.00000000       0.01130469       0.09430767
P        3.00857432       7.91098781      -4.16567275       0.09823601      -0.21380494       0.01561264
P        3.00857432       1.31058763      -1.34132225       0.09823601       0.21380494      -0.01561264
P        5.22964868       1.31058763      -1.34132225      -0.09823601       0.21380494      -0.01561264
P        5.22964868       7.91098781      -4.16567275      -0.09823601      -0.21380494       0.01561264
16
Lattice="0.0 8.99977263 0.0 8.238223 0.0 0.0 0.0 -0.05075606 -5.506995" Properties=species:S:1:pos:R:3:forces:R:3 energy=-60.58747748 stress="-0.0024648457284491667 -0.0 -0.0 -0.0 -0.011426373916790087 -0.000969377664008415 -0.0 -0.000969377664008415 -0.0023322525503675106" free_energy=-60.58747748 pbc="T T T"
P        0.00000000       1.27844162      -4.20207949       0.00000000      -0.52756764      -0.08330575
P        0.00000000       7.67057495      -1.30491551       0.00000000       0.52756764       0.08330575
P        0.00000000       2.50421403      -2.36399876       0.00000000       0.01127472       0.09301262
P        0.00000000       6.44480254      -3.14299624       0.00000000      -0.01127472      -0.09301262
P        7.12768582       3.17727920      -4.16567275      -0.10964816       0.23436438      -0.01380573
P        7.12768582       5.77173737      -1.34132225      -0.10964816      -0.23436438       0.01380573
P        1.11053718       5.77173737      -1.34132225       0.10964816      -0.23436438       0.01380573
P        1.11053718       3.17727920      -4.16567275       0.10964816       0.23436438      -0.01380573
P        4.11911150       5.77832793      -4.20207949       0.00000000      -0.52756764      -0.08330575
P        4.11911150       3.17068864      -1.30491551       0.00000000       0.52756764       0.08330575
P        4.11911150       7.00410034      -2.36399876       0.00000000       0.01127472       0.09301262
P        4.11911150       1.94491623      -3.14299624       0.00000000      -0.01127472      -0.09301262
P        3.00857432       7.67716552      -4.16567275      -0.10964816       0.23436438      -0.01380573
P        3.00857432       1.27185105      -1.34132225      -0.10964816      -0.23436438       0.01380573
P        5.22964868       1.27185105      -1.34132225       0.10964816      -0.23436438       0.01380573
P        5.22964868       7.67716552      -4.16567275       0.10964816       0.23436438      -0.01380573
16
Lattice="0.0 9.136825 0.0 8.238223 0.0 0.0 0.0 -0.051529 -5.58959992" Properties=species:S:1:pos:R:3:forces:R:3 energy=-60.57580121 stress="0.0018354271569208508 -0.0 -0.0 -0.0 0.002144053261921122 -0.0001264597968598694 -0.0 -0.0001264597968598694 0.01060427913466655" free_energy=-60.57580121 pbc="T T T"
P        0.00000000       1.29791027      -4.26511068       0.00000000       0.08326183       0.17467195
P        0.00000000       7.78738573      -1.32448924       0.00000000      -0.08326183      -0.17467195
P        0.00000000       2.54234926      -2.39945874      -0.00000000       0.00630651      -0.53115853
P        0.00000000       6.54294674      -3.19014118       0.00000000      -0.00630651       0.53115853
P        7.12768582       3.22566416      -4.22815784       0.06501798      -0.04343508       0.16523455
P        7.12768582       5.85963184      -1.36144208       0.06501798       0.04343508      -0.16523455
P        1.11053718       5.85963184      -1.36144208      -0.06501798       0.04343508      -0.16523455
P        1.11053718       3.22566416      -4.22815784      -0.06501798      -0.04343508       0.16523455
P        4.11911150       5.86632277      -4.26511068       0.00000000       0.08326183       0.17467195
P        4.11911150       3.21897323      -1.32448924      -0.00000000      -0.08326183      -0.17467195
P        4.11911150       7.11076176      -2.39945874      -0.00000000       0.00630651      -0.53115853
P        4.11911150       1.97453424      -3.19014118       0.00000000      -0.00630651       0.53115853
P        3.00857432       7.79407666      -4.22815784       0.06501798      -0.04343508       0.16523455
P        3.00857432       1.29121934      -1.36144208       0.06501798       0.04343508      -0.16523455
P        5.22964868       1.29121934      -1.36144208      -0.06501798       0.04343508      -0.16523455
P        5.22964868       7.79407666      -4.22815784      -0.06501798      -0.04343508       0.16523455
16
Lattice="0.0 9.136825 0.0 8.238223 0.0 0.0 0.0 -0.051529 -5.42439007" Properties=species:S:1:pos:R:3:forces:R:3 energy=-60.58678655 stress="-0.002016097106938886 -0.0 -0.0 -0.0 -0.00238309778112573 0.00011996289142206414 -0.0 0.00011996289142206414 -0.011627703898648726" free_energy=-60.58678655 pbc="T T T"
P        0.00000000       1.29791027      -4.13904830       0.00000000      -0.09389140      -0.19223448
P        0.00000000       7.78738573      -1.28534177      -0.00000000       0.09389140       0.19223448
P        0.00000000       2.54234926      -2.32853877       0.00000000      -0.00476110       0.57487861
P        0.00000000       6.54294674      -3.09585130      -0.00000000       0.00476110      -0.57487861
P        7.12768582       3.22566416      -4.10318765      -0.07207134       0.04893771      -0.17787671
P        7.12768582       5.85963184      -1.32120242      -0.07207134      -0.04893771       0.17787671
P        1.11053718       5.85963184      -1.32120242       0.07207134      -0.04893771       0.17787671
P        1.11053718       3.22566416      -4.10318765       0.07207134       0.04893771      -0.17787671
P        4.11911150       5.86632277      -4.13904830       0.00000000      -0.09389140      -0.19223448
P        4.11911150       3.21897323      -1.28534177      -0.00000000       0.09389140       0.19223448
P        4.11911150       7.11076176      -2.32853877       0.00000000      -0.00476110       0.57487861
P        4.11911150       1.97453424      -3.09585130       0.00000000       0.00476110      -0.57487861
P        3.00857432       7.79407666      -4.10318765      -0.07207134       0.04893771      -0.17787671
P        3.00857432       1.29121934      -1.32120242      -0.07207134      -0.04893771       0.17787671
P        5.22964868       1.29121934      -1.32120242       0.07207134      -0.04893771       0.17787671
P        5.22964868       7.79407666      -4.10318765       0.07207134       0.04893771      -0.17787671
16
Lattice="0.0 9.136825 0.0 8.238223 0.12357334 0.0 0.0 -0.051529 -5.506995" Properties=species:S:1:pos:R:3:forces:R:3 energy=-60.60415105 stress="-6.772786382678441e-07 0.0036873400118958974 -0.000959403950878073 0.0036873400118958974 -5.231124266321587e-05 -2.025432126440376e-05 -0.000959403950878073 -2.025432126440376e-05 8.061608085100327e-06" free_energy=-60.60415105 pbc="T T T"
P        0.00000000       1.29791027      -4.20207949       0.16317406      -0.00737059      -0.00153954
P        0.00000000       7.78738573      -1.30491551      -0.16317406       0.00737059       0.00153954
P        0.00000000       2.54234926      -2.36399876       0.03347814       0.00148996      -0.00020750
P        0.00000000       6.54294674      -3.14299624      -0.03347814      -0.00148996       0.00020750
P        7.12768582       3.33257944      -4.16567275      -0.11796827       0.15647321      -0.03572110
P        7.12768582       5.96654713      -1.34132225       0.11765347       0.14968860      -0.03636901
P        1.11053718       5.87628990      -1.34132225       0.11796827      -0.15647321       0.03572110
P        1.11053718       3.24232221      -4.16567275      -0.11765347      -0.14968860       0.03636901
P        4.11911150       5.92810944      -4.20207949       0.16317406      -0.00737059      -0.00153954
P        4.11911150       3.28075990      -1.30491551      -0.16317406       0.00737059       0.00153954
P        4.11911150       7.17254843      -2.36399876       0.03347814       0.00148996      -0.00020750
P        4.11911150       2.03632091      -3.14299624      -0.03347814      -0.00148996       0.00020750
P        3.00857432       7.83920527      -4.16567275      -0.11796827       0.15647321      -0.03572110
P        3.00857432       1.33634796      -1.34132225       0.11765347       0.14968860      -0.03636901
P        5.22964868       1.36966407      -1.34132225       0.11796827      -0.15647321       0.03572110
P        5.22964868       7.87252138      -4.16567275      -0.11765347      -0.14968860       0.03636901
16
Lattice="0.0 9.136825 0.0 8.238223 -0.12357334 0.0 0.0 -0.051529 -5.506995" Properties=species:S:1:pos:R:3:forces:R:3 energy=-60.60415082 stress="-7.110639271662503e-07 -0.0036874475468566268 0.0009594972427149776 -0.0036874475468566268 -5.231986842882785e-05 -2.0246694140251933e-05 0.0009594972427149776 -2.0246694140251933e-05 8.042452893592991e-06" free_energy=-60.60415082 pbc="T T T"
P        0.00000000       1.29791027      -4.20207949      -0.16317939      -0.00736985      -0.00153950
P        0.00000000       7.78738573      -1.30491551       0.16317939       0.00736985       0.00153950
P        0.00000000       2.54234926      -2.36399876      -0.03348249       0.00149023      -0.00020749
P        0.00000000       6.54294674      -3.14299624       0.03348249      -0.00149023       0.00020749
P        7.12768582       3.11874887      -4.16567275       0.11765076      -0.14969074       0.03636826
P        7.12768582       5.75271656      -1.34132225      -0.11796601      -0.15647570       0.03572081
P        1.11053718       5.84297379      -1.34132225      -0.11765076       0.14969074      -0.03636826
P        1.11053718       3.20900610      -4.16567275       0.11796601       0.15647570      -0.03572081
P        4.11911150       5.80453610      -4.20207949      -0.16317939      -0.00736985      -0.00153950
P        4.11911150       3.15718656      -1.30491551       0.16317939       0.00736985       0.00153950
P        4.11911150       7.04897509      -2.36399876      -0.03348249       0.00149023      -0.00020749
P        4.11911150       1.91274757      -3.14299624       0.03348249      -0.00149023       0.00020749
P        3.00857432       7.74894804      -4.16567275       0.11765076      -0.14969074       0.03636826
P        3.00857432       1.24609073      -1.34132225      -0.11796601      -0.15647570       0.03572081
P        5.22964868       1.21277462      -1.34132225      -0.11765076       0.14969074      -0.03636826
P        5.22964868       7.71563193      -4.16567275       0.11796601       0.15647570      -0.03572081
16
Lattice="0.0 9.136825 0.13705238 8.238223 0.0 0.0 0.0 -0.051529 -5.50776793" Properties=species:S:1:pos:R:3:forces:R:3 energy=-60.60397437 stress="-0.0007615253800113373 -0.0 -0.0 -0.0 0.0008878899813740186 0.003738939672586689 -0.0 0.003738939672586689 -0.00018222117100561802" free_energy=-60.60397437 pbc="T T T"
P        0.00000000       1.29791027      -4.18261083      -0.00000000       0.10357663       0.15156671
P        0.00000000       7.78738573      -1.18810472       0.00000000      -0.10357663      -0.15156671
P        0.00000000       2.54234926      -2.32586352       0.00000000      -0.16204088       0.01265644
P        0.00000000       6.54294674      -3.04485203       0.00000000       0.16204088      -0.01265644
P        7.12768582       3.22566416      -4.11728778      -0.02760277       0.04196632      -0.08146568
P        7.12768582       5.85963184      -1.25342777      -0.02760277      -0.04196632       0.08146568
P        1.11053718       5.85963184      -1.25342777       0.02760277      -0.04196632       0.08146568
P        1.11053718       3.22566416      -4.11728778       0.02760277       0.04196632      -0.08146568
P        4.11911150       5.86632277      -4.11408464      -0.00000000       0.10357663       0.15156671
P        4.11911150       3.21897323      -1.25663091       0.00000000      -0.10357663      -0.15156671
P        4.11911150       7.11076176      -2.25733733       0.00000000      -0.16204088       0.01265644
P        4.11911150       1.97453424      -3.11337822       0.00000000       0.16204088      -0.01265644
P        3.00857432       7.79407666      -4.04876159      -0.02760277       0.04196632      -0.08146568
P        3.00857432       1.29121934      -1.32195396      -0.02760277      -0.04196632       0.08146568
P        5.22964868       1.29121934      -1.32195396       0.02760277      -0.04196632       0.08146568
P        5.22964868       7.79407666      -4.04876159       0.02760277       0.04196632      -0.08146568
16
Lattice="0.0 9.136825 -0.13705238 8.238223 0.0 0.0 0.0 -0.051529 -5.50622207" Properties=species:S:1:pos:R:3:forces:R:3 energy=-60.60382342 stress="0.0008401905898039179 -0.0 -0.0 -0.0 -0.0009313393421350317 -0.0037927951332642493 -0.0 -0.0037927951332642493 6.344143253647458e-05" free_energy=-60.60382342 pbc="T T T"
P        0.00000000       1.29791027      -4.22154815      -0.00000000      -0.10613135      -0.16040941
P        0.00000000       7.78738573      -1.42172630      -0.00000000       0.10613135       0.16040941
P        0.00000000       2.54234926      -2.40213400      -0.00000000       0.16752886      -0.00144051
P        0.00000000       6.54294674      -3.24114045      -0.00000000      -0.16752886       0.00144051
P        7.12768582       3.22566416      -4.21405772       0.02892330      -0.04272693       0.08052986
P        7.12768582       5.85963184      -1.42921673       0.02892330       0.04272693      -0.08052986
P        1.11053718       5.85963184      -1.42921673      -0.02892330       0.04272693      -0.08052986
P        1.11053718       3.22566416      -4.21405772      -0.02892330      -0.04272693       0.08052986
P        4.11911150       5.86632277      -4.29007434      -0.00000000      -0.10613135      -0.16040941
P        4.11911150       3.21897323      -1.35320011      -0.00000000       0.10613135       0.16040941
P        4.11911150       7.11076176      -2.47066019      -0.00000000       0.16752886      -0.00144051
P        4.11911150       1.97453424      -3.17261426      -0.00000000      -0.16752886       0.00144051
P        3.00857432       7.79407666      -4.28258391       0.02892330      -0.04272693       0.08052986
P        3.00857432       1.29121934      -1.36069054       0.02892330       0.04272693      -0.08052986
P        5.22964868       1.29121934      -1.36069054      -0.02892330       0.04272693      -0.08052986
P        5.22964868       7.79407666      -4.28258391      -0.02892330      -0.04272693       0.08052986
16
Lattice="0.0 9.136825 0.0 8.238223 0.0 0.0 -0.08260492 -0.051529 -5.506995" Properties=species:S:1:pos:R:3:forces:R:3 energy=-60.60457008 stress="3.375398773013977e-05 -0.000959227840456577 0.0035428036561697906 -0.000959227840456577 3.110561554388149e-05 4.620712163621156e-05 0.0035428036561697906 4.620712163621156e-05 -8.615394720407094e-05" free_energy=-60.60457008 pbc="T T T"
P       -0.06303119       1.29791027      -4.20207949       0.01870769       0.00078898       0.00008025
P       -0.01957373       7.78738573      -1.30491551      -0.01870769      -0.00078898      -0.00008025
P       -0.03545998       2.54234926      -2.36399876      -0.15913553      -0.00183067       0.00398004
P       -0.04714494       6.54294674      -3.14299624       0.15913553       0.00183067      -0.00398004
P        7.06520074       3.22566416      -4.16567275       0.08238582      -0.03272370       0.12712592
P        7.10756599       5.85963184      -1.34132225      -0.08264529      -0.03590604       0.13183682
P        1.09041734       5.85963184      -1.34132225      -0.08238582       0.03272370      -0.12712592
P        1.04805209       3.22566416      -4.16567275       0.08264529       0.03590604      -0.13183682
P        4.05608031       5.86632277      -4.20207949       0.01870769       0.00078898       0.00008025
P        4.09953777       3.21897323      -1.30491551      -0.01870769      -0.00078898      -0.00008025
P        4.08365152       7.11076176      -2.36399876      -0.15913553      -0.00183067       0.00398004
P        4.07196656       1.97453424      -3.14299624       0.15913553       0.00183067      -0.00398004
P        2.94608924       7.79407666      -4.16567275       0.08238582      -0.03272370       0.12712592
P        2.98845449       1.29121934      -1.34132225      -0.08264529      -0.03590604       0.13183682
P        5.20952884       1.29121934      -1.34132225      -0.08238582       0.03272370      -0.12712592
P        5.16716359       7.79407666      -4.16567275       0.08264529       0.03590604      -0.13183682
16
Lattice="0.0 9.136825 0.0 8.238223 0.0 0.0 0.08260492 -0.051529 -5.506995" Properties=species:S:1:pos:R:3:forces:R:3 energy=-60.60457023 stress="3.391213508837141e-05 0.0009593312809873202 -0.003542993042281197 0.0009593312809873202 3.1051183342794666e-05 4.607355334091766e-05 -0.003542993042281197 4.607355334091766e-05 -8.612577927338583e-05" free_energy=-60.60457023 pbc="T T T"
P        0.06303119       1.29791027      -4.20207949      -0.01870751       0.00079108       0.00007873
P        0.01957373       7.78738573      -1.30491551       0.01870751      -0.00079108      -0.00007873
P        0.03545998       2.54234926      -2.36399876       0.15913793      -0.00182708       0.00398011
P        0.04714494       6.54294674      -3.14299624      -0.15913793       0.00182708      -0.00398011
P        7.19017091       3.22566416      -4.16567275      -0.08264225       0.03590558      -0.13183842
P        7.14780566       5.85963184      -1.34132225       0.08238480       0.03272058      -0.12712939
P        1.13065701       5.85963184      -1.34132225       0.08264225      -0.03590558       0.13183842
P        1.17302226       3.22566416      -4.16567275      -0.08238480      -0.03272058       0.12712939
P        4.18214269       5.86632277      -4.20207949      -0.01870751       0.00079108       0.00007873
P        4.13868523       3.21897323      -1.30491551       0.01870751      -0.00079108      -0.00007873
P        4.15457148       7.11076176      -2.36399876       0.15913793      -0.00182708       0.00398011
P        4.16625644       1.97453424      -3.14299624      -0.15913793       0.00182708      -0.00398011
P        3.07105941       7.79407666      -4.16567275      -0.08264225       0.03590558      -0.13183842
P        3.02869416       1.29121934      -1.34132225       0.08238480       0.03272058      -0.12712939
P        5.24976851       1.29121934      -1.34132225       0.08264225      -0.03590558       0.13183842
P        5.29213376       7.79407666      -4.16567275      -0.08238480      -0.03272058       0.12712939
16
Lattice="0.0 9.136825 0.0 8.238223 0.0 0.0 0.0 -0.051529 -5.506995" Properties=species:S:1:pos:R:3:forces:R:3 energy=-60.61487213 stress="4.0801756280377256e-05 -0.00039351122205565016 -4.5005269121949735e-05 -0.00039351122205565016 2.1470916223220925e-05 -4.923052738131679e-06 -4.5005269121949735e-05 -4.923052738131679e-06 1.8905562349846017e-05" free_energy=-60.61487213 pbc="T T T"
P        0.01499999       1.29791027      -4.20207949      -0.09028467      -0.00189464      -0.00082376
P        0.00000000       7.78738573      -1.30491551      -0.00127426       0.00020461       0.00107428
P        0.00000000       2.54234926      -2.36399876       0.01036538       0.00061514      -0.00098607
P        0.00000000       6.54294674      -3.14299624       0.00038982      -0.00081538       0.00069895
P        7.12768582       3.22566416      -4.16567275       0.04004264      -0.07097390      -0.00850488
P        7.12768582       5.85963184      -1.34132225       0.00049413       0.00003244       0.00014060
P        1.11053718       5.85963184      -1.34132225      -0.00060197      -0.00061995      -0.00122351
P        1.11053718       3.22566416      -4.16567275       0.03946003       0.07346583       0.00962471
P        4.11911150       5.86632277      -4.20207949      -0.00029236      -0.00018301      -0.00106928
P        4.11911150       3.21897323      -1.30491551       0.00008342       0.00019301       0.00107659
P        4.11911150       7.11076176      -2.36399876      -0.00008748       0.00080692      -0.00071754
P        4.11911150       1.97453424      -3.14299624      -0.00040951      -0.00080373       0.00070852
P        3.00857432       7.79407666      -4.16567275       0.00127989      -0.00083866       0.00037568
P        3.00857432       1.29121934      -1.34132225       0.00085828       0.00038148      -0.00059367
P        5.22964868       1.29121934      -1.34132225      -0.00022940      -0.00094971      -0.00048726
P        5.22964868       7.79407666      -4.16567275       0.00020606       0.00137957       0.00070663
16
Lattice="0.0 9.136825 0.0 8.238223 0.0 0.0 0.0 -0.051529 -5.506995" Properties=species:S:1:pos:R:3:forces:R:3 energy=-60.61487214 stress="4.079895384277973e-05 0.0003933824285148376 4.514561569615434e-05 0.0003933824285148376 2.146916860066568e-05 -4.923914066391051e-06 4.514561569615434e-05 -4.923914066391051e-06 1.8908071436514625e-05" free_energy=-60.61487214 pbc="T T T"
P       -0.01499999       1.29791027      -4.20207949       0.09023861      -0.00189413      -0.00082413
P        0.00000000       7.78738573      -1.30491551       0.00127451       0.00020405       0.00107430
P        0.00000000       2.54234926      -2.36399876      -0.01037663       0.00061674      -0.00098619
P        0.00000000       6.54294674      -3.14299624      -0.00038213      -0.00081626       0.00069913
P        7.12768582       3.22566416      -4.16567275      -0.03946202       0.07344803       0.00962524
P        7.12768582       5.85963184      -1.34132225       0.00060696      -0.00061722      -0.00122092
P        1.11053718       5.85963184      -1.34132225      -0.00048952       0.00002931       0.00013740
P        1.11053718       3.22566416      -4.16567275      -0.04004456      -0.07095451      -0.00850438
P        4.11911150       5.86632277      -4.20207949       0.00029971      -0.00018341      -0.00106945
P        4.11911150       3.21897323      -1.30491551      -0.00007566       0.00019339       0.00107687
P        4.11911150       7.11076176      -2.36399876       0.00008813       0.00080696      -0.00071711
P        4.11911150       1.97453424      -3.14299624       0.00041569      -0.00080402       0.00070780