24
Lattice="5.947582 0.031499 -0.960917 -2.32665 11.600184 -0.867515 0.09401 0.035969 12.018609" Properties=species:S:1:pos:R:3:forces:R:3 energy=-89.8015013 stress="0.00014736059491500476 -6.856435087983529e-06 7.478304104835432e-05 -6.856435087983529e-06 0.00033702709363614257 -0.00017357374111547143 7.478304104835432e-05 -0.00017357374111547143 0.00021512523371355888" free_energy=-89.8015013 pbc="T T T"
P        0.44095692       0.03479986       2.17413254       0.09269101      -0.10495027      -0.47235946
P        3.27398508      11.63285214       8.01604446      -0.09269101       0.10495027       0.47235946
P        2.87027942      11.09290811       2.10676752      -0.34732538      -0.31101914       0.16642715
P        0.84466258       0.57474389       8.08340948       0.34732538       0.31101914      -0.16642715
P       -0.24422524       1.57681525       3.59198780      -0.16115250       0.46212527       0.05023033
P        3.95916724      10.09083675       6.59818920       0.16115250      -0.46212527      -0.05023033
P        1.32766168       0.15364862       4.18671700       0.41586856      -0.05181749       0.26080611
P        2.38728032      11.51400338       6.00346000      -0.41586856       0.05181749      -0.26080611
P        3.69000546       4.29837614      -0.36190621       0.36451143       0.30968780      -0.10042082
P        0.02493644       7.36927583      10.55207120      -0.36451143      -0.30968780       0.10042082
P        3.09464676       2.17914439      -0.31151132       0.14927646      -0.45543561      -0.09153457
P        0.62029524       9.48850761      10.50168832      -0.14927646       0.45543561       0.09153457
P        2.36064779       3.56706533       1.23539407      -0.11933671       0.05075271       0.48094728
P        1.35429421       8.10058667       8.95478293       0.11933671      -0.05075271      -0.48094728
P        1.70838327       3.76134149      11.18903673      -0.39259473       0.09827109      -0.28117763
P        2.00655873       7.90631051      -0.99885973       0.39259473      -0.09827109       0.28117763
P        0.22047500       7.94758973       4.69230914       0.22737142       0.25055121       0.35868049
P        3.49446700       3.72006227       5.49786786      -0.22737142      -0.25055121      -0.35868049
P        4.21127327       7.31815693       2.96611565      -0.49477026       0.00680502       0.07820814
P       -0.49633127       4.34949507       7.22406135       0.49477026      -0.00680502      -0.07820814
P        0.03208359       5.99679264       3.68570389       0.15679546      -0.46651301      -0.00887541
P        3.68285841       5.67085936       6.50447311      -0.15679546       0.46651301       0.00887541
P       -0.14007263       7.85945725       2.52134204       0.09539553       0.21857788      -0.43238107
P        3.85501463       3.80819475       7.66883496      -0.09539553      -0.21857788       0.43238107
24
Lattice="5.94623776 0.03127067 -0.96130571 -2.32583569 11.59337205 -0.86354742 0.09248522 0.03943611 12.01428681" Properties=species:S:1:pos:R:3:forces:R:3 energy=-89.80419887 stress="0.011691291863094947 -6.1437234024080455e-06 3.878238465929811e-05 -6.1437234024080455e-06 0.011698231129250542 -2.1645653512709155e-05 3.878238465929811e-05 -2.1645653512709155e-05 0.011676061513529732" free_energy=-89.80419887 pbc="T T T"
P        0.44505035       0.03034923       2.15052416      -0.07020352       0.07764354       0.36656504
P        3.26783694      11.63372960       8.03890952       0.07020352      -0.07764354      -0.36656504
P        2.85268341      11.07231041       2.11689294       0.26770142       0.22927049      -0.12652589
P        0.86020388       0.59176842       8.07254074      -0.26770142      -0.22927049       0.12652589
P       -0.25236850       1.59924845       3.59361420       0.12034012      -0.35029740      -0.03751042
P        3.96525579      10.06483038       6.59581948      -0.12034012       0.35029740       0.03751042
P        1.34686928       0.15229727       4.19766473      -0.31689920       0.03795744      -0.19556578
P        2.36601801      11.51178156       5.99176895       0.31689920      -0.03795744       0.19556578
P        3.70677265       4.31082295      -0.36583114      -0.27880082      -0.23216557       0.08591347
P        0.00611454       7.35325584      10.55525280       0.27880082       0.23216557      -0.08591347
P        3.10114858       2.15590186      -0.31557551      -0.11221874       0.34954146       0.07635952
P        0.61173871       9.50817697      10.50500919       0.11221874      -0.34954146      -0.07635952
P        2.35419434       3.56789534       1.25888493       0.09406519      -0.03659504      -0.36653441
P        1.35869295       8.09618349       8.93054875      -0.09406519       0.03659504       0.36653441
P        1.68767390       3.76722224      11.17233548       0.29825492      -0.07702155       0.21233389
P        2.02521339       7.89685659      -0.98290180      -0.29825492       0.07702155      -0.21233389
P        0.23088964       7.95656256       4.71019958      -0.18268866      -0.18983362      -0.27884689
P        3.48199765       3.70751627       5.47923410       0.18268866       0.18983362       0.27884689
P        4.18608567       7.31527271       2.97042053       0.37678016      -0.00521762      -0.06341194
P       -0.47319838       4.34880612       7.21901315      -0.37678016       0.00521762       0.06341194
P        0.03924596       5.97199130       3.68567888      -0.13120635       0.35405990       0.01434945
P        3.67364133       5.69208753       6.50375480       0.13120635      -0.35405990      -0.01434945
P       -0.13565948       7.86629309       2.50188370      -0.07796391      -0.14916785       0.32469999
P        3.84854677       3.79778574       7.68754998       0.07796391       0.14916785      -0.32469999
24
Lattice="5.94695256 0.03139209 -0.96109901 -2.3262687 11.59699433 -0.86565719 0.09329602 0.03759246 12.01658515" Properties=species:S:1:pos:R:3:forces:R:3 energy=-89.86274183 stress="0.005718452860350214 -6.048602803329585e-06 5.783804906211249e-05 -6.048602803329585e-06 0.005820204694625888 -0.00010047122639926116 5.783804906211249e-05 -0.00010047122639926116 0.005747203373497135" free_energy=-89.86274183 pbc="T T T"
P        0.44287413       0.03271475       2.16307970       0.01325792      -0.01588350      -0.06339318
P        3.27110575      11.63326413       8.02674925      -0.01325792       0.01588350       0.06339318
P        2.86204098      11.08326624       2.11150729      -0.04759293      -0.04777530       0.02360082
P        0.85193890       0.58271264       8.07832166       0.04759293       0.04777530      -0.02360082
P       -0.24803777       1.58731618       3.59275121      -0.02396122       0.06617938       0.00737483
P        3.96201765      10.07866270       6.59707774       0.02396122      -0.06617938      -0.00737483
P        1.33665377       0.15301728       4.19184102       0.05880355      -0.00808942       0.03837884
P        2.37732611      11.51296160       5.99798793      -0.05880355       0.00808942      -0.03837884
P        3.69785567       4.30420161      -0.36374292       0.05099645       0.04572078      -0.00962116
P        0.01612412       7.36177723      10.55355985      -0.05099645      -0.04572078       0.00962116
P        3.09769078       2.16826437      -0.31341593       0.02186968      -0.06324900      -0.00962253
P        0.61628910       9.49771451      10.50324488      -0.02186968       0.06324900       0.00962253
P        2.35762560       3.56745546       1.24639165      -0.01533795       0.00812639       0.06787853
P        1.35635428       8.09852342       8.94343730       0.01533795      -0.00812639      -0.06787853
P        1.69868798       3.76409324      11.18121892      -0.05589714       0.01291313      -0.04066972
P        2.01529190       7.90188564      -0.99138997       0.05589714      -0.01291313       0.04066972
P        0.22535029       7.95179074       4.70068517       0.02743291       0.03578583       0.04786672
P        3.48862959       3.71418814       5.48914378      -0.02743291      -0.03578583      -0.04786672
P        4.19948076       7.31680661       2.96813190      -0.06984312       0.00099746       0.00909365
P       -0.48550088       4.34917227       7.22169705       0.06984312      -0.00099746      -0.00909365
P        0.03543672       5.98518305       3.68569012       0.01646241      -0.06669951       0.00254483
P        3.67854316       5.68079583       6.50413883      -0.01646241       0.06669951      -0.00254483
P       -0.13800573       7.86265477       2.51223354       0.01079989       0.03941368      -0.06335990
P        3.85198561       3.80332411       7.67759541      -0.01079989      -0.03941368       0.06335990
24
Lattice="5.94682202 0.03136991 -0.96113676 -2.32618962 11.5963328 -0.86527189 0.09314795 0.03792917 12.01616541" Properties=species:S:1:pos:R:3:forces:R:3 energy=-89.86192667 stress="0.006836922151897624 -5.993065855127475e-06 5.4358276652740935e-05 -5.993065855127475e-06 0.006921038271338132 -8.579730737261798e-05 5.4358276652740935e-05 -8.579730737261798e-05 0.006857617360883662" free_energy=-89.86192667 pbc="T T T"
P        0.44327158       0.03228278       2.16078674      -0.00250617       0.00178881       0.01780531
P        3.27050877      11.63334910       8.02897002       0.00250617      -0.00178881      -0.01780531
P        2.86033206      11.08126548       2.11249079       0.01193958       0.00452600      -0.00475645
P        0.85344829       0.58436640       8.07726597      -0.01193958      -0.00452600       0.00475645
P       -0.24882867       1.58949519       3.59290890       0.00328698      -0.01246459      -0.00111405
P        3.96260902      10.07613669       6.59684786      -0.00328698       0.01246459       0.00111405
P        1.33851934       0.15288591       4.19290444      -0.01212970       0.00060234      -0.00579574
P        2.37526101      11.51274597       5.99685232       0.01212970      -0.00060234       0.00579574
P        3.69948413       4.30541076      -0.36412429      -0.01127640      -0.00673383       0.00841550
P        0.01429613       7.36022108      10.55386903       0.01127640       0.00673383      -0.00841550
P        3.09832228       2.16600670      -0.31381046      -0.00344208       0.01468028       0.00662433
P        0.61545807       9.49962518      10.50356722       0.00344208      -0.01468028      -0.00662433
P        2.35699889       3.56753590       1.24867314       0.00531560      -0.00032495      -0.01414895
P        1.35678146       8.09809598       8.94108362      -0.00531560       0.00032495       0.01414895
P        1.69667658       3.76466463      11.17959667       0.01097354      -0.00405874       0.00710184
P        2.01710377       7.90096725      -0.98983991      -0.01097354       0.00405874      -0.00710184
P        0.22636185       7.95266228       4.70242268      -0.01225753      -0.00683798      -0.01383776
P        3.48741850       3.71296960       5.48733408       0.01225753       0.00683798       0.01383776
P        4.19703454       7.31652646       2.96854988       0.01451680      -0.00016656      -0.00461279
P       -0.48325419       4.34910542       7.22120688      -0.01451680       0.00016656       0.00461279
P        0.03613236       5.98277406       3.68568795      -0.01141422       0.01273832       0.00478574
P        3.67764799       5.68285782       6.50406881       0.01141422      -0.01273832      -0.00478574
P       -0.13757722       7.86331907       2.51034345      -0.00597740       0.00380850       0.00992373
P        3.85135757       3.80231281       7.67941331       0.00597740      -0.00380850      -0.00992373
24
Lattice="5.89380252 0.03090624 -0.95327235 -2.30511755 11.48917258 -0.85403666 0.09066065 0.04079808 11.907705" Properties=species:S:1:pos:R:3:forces:R:3 energy=-90.01176649 stress="0.0067733123858600254 1.439883699493813e-05 4.837748784606407e-05 1.439883699493813e-05 0.006782356157821174 -6.256388883639364e-06 4.837748784606407e-05 -6.256388883639364e-06 0.006760663037631563" free_energy=-90.01176649 pbc="T T T"
P        0.44132414       0.02991316       2.12964410      -0.00404174       0.00443318       0.01302465
P        3.23802148      11.53096374       7.97075189       0.00404174      -0.00443318      -0.01302465
P        2.82606686      10.97183135       2.10013348       0.00896827      -0.00191952      -0.00200411
P        0.85327876       0.58904555       8.00026251      -0.00896827       0.00191952       0.00200411
P       -0.25113332       1.58731723       3.56220363       0.00216122      -0.00587813      -0.00561472
P        3.93047894       9.97355967       6.53819236      -0.00216122       0.00587813       0.00561472
P        1.33631132       0.15129927       4.16145989      -0.00669115      -0.00207510      -0.00057075
P        2.34303430      11.40957763       5.93893610       0.00669115       0.00207510       0.00057075
P        3.67556122       4.27345317      -0.36248618      -0.00720042       0.00154950       0.00431681
P        0.00378431       7.28742368      10.46287026       0.00720042      -0.00154950      -0.00431681
P        3.07444551       2.13473842      -0.31295652      -0.00131801       0.00344040       0.01016243
P        0.60490011       9.42613848      10.41335251       0.00131801      -0.00344040      -0.01016243
P        2.33291103       3.53632350       1.24997724       0.00342608      -0.00315671      -0.01115795
P        1.34643459       8.02455340       8.85041875      -0.00342608       0.00315671       0.01115795
P        1.67025380       3.73537330      11.07244032       0.00584705       0.00131966       0.00414075
P        2.00909182       7.82550360      -0.97204433      -0.00584705      -0.00131966      -0.00414075
P        0.22924205       7.88685878       4.67086377      -0.00940202      -0.00568843      -0.01003704
P        3.45010357       3.67401812       5.42953222       0.00940202       0.00568843       0.01003704
P        4.14692530       7.25010579       2.94499523       0.01283484       0.00059094      -0.00693832
P       -0.46757968       4.31077111       7.15540076      -0.01283484      -0.00059094       0.00693832
P        0.03902820       5.91699257       3.65396068      -0.00955290       0.00663402       0.00707906
P        3.64031742       5.64388433       6.44643531       0.00955290      -0.00663402      -0.00707906
P       -0.13432995       7.79730578       2.47897027      -0.00762647       0.00864318       0.00452172
P        3.81367557       3.76357112       7.62142572       0.00762647      -0.00864318      -0.00452172
24
Lattice="5.73474402 0.02951522 -0.92967914 -2.24190134 11.16769192 -0.82033099 0.08319875 0.04940484 11.58232379" Properties=species:S:1:pos:R:3:forces:R:3 energy=-90.43015196 stress="0.005544381065531024 8.503124950854358e-05 3.110567795897275e-05 8.503124950854358e-05 0.005287310475027499 0.00026667585486714904 3.110567795897275e-05 0.00026667585486714904 0.005412232126861404" free_energy=-90.43015196 pbc="T T T"
P        0.43530706       0.02300037       2.03716495      -0.00266945       0.00421949      -0.03197281
P        3.14073437      11.22361161       7.79514871       0.00266945      -0.00421949       0.03197281
P        2.72396614      10.64420485       2.06271066      -0.02237953      -0.04114169       0.01634859
P        0.85207529       0.60240713       7.76960300       0.02237953       0.04114169      -0.01634859
P       -0.25771519       1.57981285       3.47001735      -0.01062843       0.04396956      -0.01520336
P        3.83375662       9.66679913       6.36229631       0.01062843      -0.04396956       0.01520336
P        1.32883277       0.14666848       4.06656838       0.03538050      -0.01236516       0.03075806
P        2.24720866      11.09994350       5.76574528      -0.03538050       0.01236516      -0.03075806
P        3.60305677       4.17691866      -0.35737433       0.02743438       0.04502444      -0.01324450
P       -0.02701543       7.06969327      10.18967641      -0.02743438      -0.04502444       0.01324450
P        3.00250993       2.04188066      -0.31025153       0.01421579      -0.05962828       0.01405994
P        0.57353150       9.20473132      10.14256519      -0.01421579       0.05962828      -0.01405994
P        2.26086960       3.44260536       1.25290851      -0.00985460      -0.00697621       0.02855737
P        1.31517183       7.80400662       8.57940515       0.00985460       0.00697621      -0.02855737
P        1.59179497       3.64727801      10.75157124      -0.03477353       0.02245517      -0.02244337
P        1.98424646       7.59933397      -0.91925758       0.03477353      -0.02245517       0.02244337
P        0.23742652       7.68894365       4.57546847       0.01407235       0.01370992       0.02376630
P        3.33861491       3.55766833       5.25684519      -0.01407235      -0.01370992      -0.02376630
P        3.99760169       7.05083239       2.87419383      -0.02336115       0.00270095      -0.00982263
P       -0.42156026       4.19577959       6.95811983       0.02336115      -0.00270095       0.00982263
P        0.04741583       5.72063054       3.55874963       0.00599145      -0.04195350       0.01353532
P        3.52862560       5.52598144       6.27356403      -0.00599145       0.04195350      -0.01353532
P       -0.12475823       7.59874885       2.38575918      -0.00654664       0.03747316      -0.03931269
P        3.70079966       3.64786313       7.44655448       0.00654664      -0.03747316       0.03931269
24
Lattice="5.41662702 0.02673319 -0.88249271 -2.11546893 10.5247306 -0.75291963 0.06827495 0.06661835 10.93156137" Properties=species:S:1:pos:R:3:forces:R:3 energy=-90.86645193 stress="-0.00403219036910815 0.00022473169020542484 -3.040560532937718e-05 0.00022473169020542484 -0.005032805519265258 0.0009699549973610501 -3.040560532937718e-05 0.0009699549973610501 -0.00449880453654414" free_energy=-90.86645193 pbc="T T T"
P        0.42255596       0.00997754       1.85610793       0.02072930      -0.03058373      -0.23463675
P        5.06234601       0.08337400       8.19296073      -0.02072930       0.03058373       0.23463675
P        2.52262111       9.99173545       1.98642056      -0.16850265      -0.19481749       0.09014564
P        0.84681193       0.62634669       7.30972847       0.16850265       0.19481749      -0.09014564
P       -0.26951381       1.56081018       3.28535830      -0.06961991       0.25451325      -0.01754250
P        3.63894685       9.05727196       6.01079073       0.06961991      -0.25451325       0.01754250
P        1.31036071       0.13794038       3.87448883       0.20762045      -0.03823911       0.14961619
P        2.05907233      10.48014176       5.42166020      -0.20762045       0.03823911      -0.14961619
P        3.45502317       3.98112626      -0.34633809       0.17616682       0.19804560      -0.06333068
P       -0.08559020       6.63695581       9.64247619      -0.17616682      -0.19804560       0.06333068
P        2.85738403       1.86006090      -0.30425581       0.07740245      -0.29318737      -0.00484359
P        0.51204901       8.75802124       9.60040484      -0.07740245       0.29318737       0.00484359
P        2.11769872       3.25483938       1.25473718      -0.06598610       0.00636688       0.21974981
P        1.25173432       7.36324276       8.04141185       0.06598610      -0.00636688      -0.21974981
P        1.43820666       3.47017501      10.11230073      -0.20748478       0.08329805      -0.13787526
P        1.93122638       7.14790713      -0.81615170       0.20748478      -0.08329805       0.13787526
P        0.25191934       7.29103812       4.38172521       0.11727047       0.11130653       0.17256787
P        3.11751370       3.32704402       4.91442382      -0.11727047      -0.11130653      -0.17256787
P        3.70308240       6.65223914       2.73202730      -0.21198974       0.00610279      -0.00095829
P       -0.33364936       3.96584300       6.56412173       0.21198974      -0.00610279       0.00095829
P        0.06295814       5.33194886       3.36820443       0.07284937      -0.24634491       0.02540248
P        3.30647490       5.28613328       5.92794460      -0.07284937       0.24634491      -0.02540248
P       -0.10631141       7.19950400       2.20307324       0.01649088       0.14806428      -0.22578022
P        3.47574445       3.41857814       7.09307579      -0.01649088      -0.14806428       0.22578022
24
Lattice="5.35946897 0.02560058 -0.8748394 -2.09638342 10.42587593 -0.75574913 0.06519719 0.0547222 10.82201512" Properties=species:S:1:pos:R:3:forces:R:3 energy=-90.68976269 stress="0.008876365860899224 -0.00010201613097960892 9.701620781508286e-05 -0.00010201613097960892 0.009429909058625556 5.544469869722868e-05 9.701620781508286e-05 5.544469869722868e-05 0.008555895387585473" free_energy=-90.68976269 pbc="T T T"
P        0.42332120       0.00098988       1.80131393      -0.12543585       0.10345369       0.59549257
P        5.00134496       0.07933290       8.14586179       0.12543585      -0.10345369      -0.59549257
P        2.46583026       9.86688797       1.96903248       0.45313035       0.41658443      -0.22668870
P        0.86245248       0.63931074       7.22239411      -0.45313035      -0.41658443       0.22668870
P       -0.27976947       1.57984468       3.25221229       0.21519980      -0.62496268      -0.04252524
P        3.60805221       8.92635403       5.93921430      -0.21519980       0.62496268       0.04252524
P        1.32770139       0.12736599       3.85669862      -0.55372596       0.09062435      -0.33476509
P        2.00058135      10.37883272       5.33472797       0.55372596      -0.09062435       0.33476509
P        3.44493418       3.96909152      -0.35589777      -0.48225734      -0.42629778       0.15551426
P       -0.11665151       6.53710713       9.54731354       0.48225734       0.42629778      -0.15551426
P        2.83835769       1.80265603      -0.30802233      -0.20930025       0.62831630       0.10872926
P        0.48992505       8.70354268       9.49944892       0.20930025      -0.62831630      -0.10872926
P        2.08446764       3.22464854       1.27426837       0.14658605      -0.04100218      -0.61723554
P        1.24381510       7.28155017       7.91715822      -0.14658605       0.04100218       0.61723554
P        1.38866637       3.43582856       9.98553006       0.51569109      -0.16120474       0.37832353
P        1.93961637       7.07037015      -0.79410347      -0.51569109       0.16120474      -0.37832353
P        0.26327879       7.23546983       4.35733882      -0.27048034      -0.29446889      -0.44612523
P        3.06500395       3.27072888       4.83408777       0.27048034       0.29446889       0.44612523
P        3.62504697       6.58549752       2.70051272       0.59465650      -0.01688915      -0.11984705
P       -0.29676423       3.92070119       6.49091387      -0.59465650       0.01688915       0.11984705
P        0.07112041       5.24073029       3.33044607      -0.21771649       0.63561775      -0.01852781
P        3.25716233       5.26546842       5.86098052       0.21771649      -0.63561775       0.01852781
P       -0.10276545       7.14862117       2.13944644      -0.12050442      -0.29733604       0.57009023
P        3.43104819       3.35757754       7.05198015       0.12050442       0.29733604      -0.57009023
24
Lattice="5.40487561 0.02650033 -0.88091923 -2.11154505 10.50440658 -0.75350136 0.06764218 0.06417257 10.90903921" Properties=species:S:1:pos:R:3:forces:R:3 energy=-90.87875215 stress="-0.0013956296396857274 0.00016097258357897017 -1.7733812634098326e-06 0.00016097258357897017 -0.002059935856729735 0.0007741286721439594 -1.7733812634098326e-06 0.0007741286721439594 -0.0018317981063377155" free_energy=-90.87875215 pbc="T T T"
P        0.42268142       0.00819478       1.84507925      -0.00988833      -0.00313163      -0.06117511
P        5.04983637       0.08247812       8.18304073       0.00988833       0.00313163       0.06117511
P        2.51112910       9.96622808       1.98278153      -0.03880834      -0.06556893       0.02283773
P        0.84984364       0.62885140       7.29183709       0.03880834       0.06556893      -0.02283773
P       -0.27154938       1.56449709       3.27851188      -0.00995584       0.06891981      -0.02164149
P        3.63252212       9.03058239       5.99610674       0.00995584      -0.06891981       0.02164149
P        1.31370493       0.13577457       3.87069189       0.04876852      -0.01030438       0.04810064
P        2.04726781      10.45930491       5.40392673      -0.04876852       0.01030438      -0.04810064
P        3.45275511       3.97848772      -0.34827256       0.03853472       0.06587150      -0.01707682
P       -0.09178244       6.61659169       9.62288027      -0.03853472      -0.06587150       0.01707682
P        2.85340106       1.84849863      -0.30497782       0.01698600      -0.09827500       0.01791298
P        0.50757168       8.74658085       9.57959644      -0.01698600       0.09827500      -0.01791298
P        2.11092556       3.24859282       1.25852069      -0.02136301      -0.00288015       0.04475364
P        1.25004718       7.34648666       8.01609793       0.02136301       0.00288015      -0.04475364
P        1.42823402       3.46307602      10.08637475      -0.05583920       0.03064093      -0.02991941
P        1.93273872       7.13200346      -0.81175613       0.05583920      -0.03064093       0.02991941
P        0.25412848       7.27947793       4.37652214       0.03731984       0.02708341       0.04365691
P        3.10684426       3.31560155       4.89809648      -0.03731984      -0.02708341      -0.04365691
P        3.68728416       6.63851859       2.72553024      -0.04457990       0.00116750      -0.02627462
P       -0.32631142       3.95656089       6.54908838       0.04457990      -0.00116750       0.02627462
P        0.06456693       5.31341769       3.36045534       0.01229616      -0.06068138       0.01452984
P        3.29640581       5.28166179       5.91416328      -0.01229616       0.06068138      -0.01452984
P       -0.10561783       7.18894213       2.19019821      -0.01180827       0.05280142      -0.05818536
P        3.46659057       3.40613735       7.08442041       0.01180827      -0.05280142       0.05818536
24
Lattice="5.40186855 0.02644074 -0.88051659 -2.11054097 10.49920589 -0.75365022 0.06748026 0.06354671 10.90327604" Properties=species:S:1:pos:R:3:forces:R:3 energy=-90.87799633 stress="-0.0006811226464252748 0.00014489458090087743 6.339588200287388e-06 0.00014489458090087743 -0.0012613269060129829 0.00072573123019322 6.339588200287388e-06 0.00072573123019322 -0.0011107400063742087" free_energy=-90.87799633 pbc="T T T"
P        0.42272364       0.00771799       1.84218200      -0.01802944       0.00435837      -0.01489999
P        5.04662517       0.08226946       8.18057745       0.01802944      -0.00435837       0.01489999
P        2.50812995       9.95965003       1.98187070      -0.00416034      -0.03138203       0.00512303
P        0.85067789       0.62954331       7.28723853       0.00416034       0.03138203      -0.00512303
P       -0.27209345       1.56551249       3.27676998       0.00591070       0.01977127      -0.02300586
P        3.63090129       9.02368085       5.99233925      -0.00591070      -0.01977127       0.02300586
P        1.31463089       0.13521777       3.86976455       0.00634675      -0.00309575       0.02107024
P        2.04417695      10.45397557       5.39934468      -0.00634675       0.00309575      -0.02107024
P        3.45223632       3.97786479      -0.34877738       0.00179541       0.03091215      -0.00492235
P       -0.09342855       6.61132849       9.61787571      -0.00179541      -0.03091215       0.00492235
P        2.85240452       1.84546365      -0.30517916       0.00097999      -0.04670138       0.02419788
P        0.50640332       8.74372969       9.57428839      -0.00097999       0.04670138      -0.02419788
P        2.10917362       3.24700686       1.25956250      -0.00951961      -0.00551867      -0.00189513
P        1.24963422       7.34218648       8.00954673       0.00951961       0.00551867       0.00189513
P        1.42561459       3.46127138      10.07969689      -0.01543476       0.01691661      -0.00116409
P        1.93319325       7.12792196      -0.81058766       0.01543476      -0.01691661       0.00116409
P        0.25473392       7.27656292       4.37525088       0.01576193       0.00444002       0.00916195
P        3.10407392       3.31263042       4.89385835      -0.01576193      -0.00444002      -0.00916195
P        3.68316360       6.63500724       2.72387347       0.00028334      -0.00008445      -0.03294982
P       -0.32435576       3.95418610       6.54523576      -0.00028334       0.00008445       0.03294982
P        0.06500062       5.30860496       3.35846805      -0.00383129      -0.01150495       0.01199804
P        3.29380722       5.28058838       5.91064118       0.00383129       0.01150495      -0.01199804
P       -0.10542909       7.18627145       2.18683798      -0.01941017       0.02785893      -0.01377965
P        3.46423693       3.40292189       7.08227125       0.01941017      -0.02785893       0.01377965
24
Lattice="5.40204794 0.0264443 -0.88054061 -2.11060087 10.49951613 -0.75364134 0.06748992 0.06358405 10.90361983" Properties=species:S:1:pos:R:3:forces:R:3 energy=-90.87809022 stress="-0.0007236012403059027 0.00014585987397775917 5.846552669906492e-06 0.00014585987397775917 -0.001308785506402516 0.0007286138337339544 5.846552669906492e-06 0.0007286138337339544 -0.0011536329927702314" free_energy=-90.87809022 pbc="T T T"
P        0.42272110       0.00774644       1.84235478      -0.01754770       0.00391337      -0.01764917