24
Lattice="5.50426 0.0 0.0 -1.983387 10.632439 0.0 -1.69419 -1.279697 10.701091" Properties=species:S:1:pos:R:3:forces:R:3 energy=-90.88378823 stress="1.3620895297488042e-05 -1.2303200373849818e-06 -1.2306758034051574e-06 -1.2303200373849818e-06 -9.201881870326191e-06 1.022927172150133e-06 -1.2306758034051574e-06 1.022927172150133e-06 -1.3690625437442408e-06" free_energy=-90.88378823 pbc="T T T"
P       -1.79383709      10.31584847       1.85155627       0.00026974       0.00031419       0.00012233
P        3.62052009      -0.96310647       8.84953473      -0.00026974      -0.00031419      -0.00012233
P        2.15084911       9.67705897       3.29851499      -0.00040671       0.00006903      -0.00037847
P       -0.32416611      -0.32431697       7.40257601       0.00040671      -0.00006903       0.00037847
P       -0.74940450       1.17675881       3.21205018      -0.00027264       0.00065363       0.00021896
P        2.57608750       8.17598319       7.48904082       0.00027264      -0.00065363      -0.00021896
P        0.64370249      -0.34516584       4.02520468      -0.00015297      -0.00017076       0.00026012
P        1.18298051       9.69790784       6.67588632       0.00015297       0.00017076      -0.00026012
P        3.41429475       3.95337757       0.60572455      -0.00019251       0.00057169      -0.00034205
P       -1.58761175       5.39936443      10.09536645       0.00019251      -0.00057169       0.00034205
P        2.79012427       1.82680246       0.46490890      -0.00014090      -0.00051642       0.00022598
P       -0.96344127       7.52593954      10.23618210       0.00014090       0.00051642      -0.00022598
P        1.84312326       3.17192260       1.96607935       0.00004833       0.00031463       0.00010202
P       -0.01644026       6.18081940       8.73501165      -0.00004833      -0.00031463      -0.00010202
P       -0.28901532       2.15173883      10.50764738      -0.00011624       0.00032071      -0.00009876
P        2.11569832       7.20100317       0.19344362       0.00011624      -0.00032071       0.00009876
P       -0.50634817       6.83231578       5.09088353      -0.00029099       0.00048911       0.00024364
P        2.33303117       2.52042622       5.61020747       0.00029099      -0.00048911      -0.00024364
P        3.18772973       6.27421890       3.92731110       0.00056984      -0.00020218       0.00049269
P       -1.36104673       3.07852310       6.77377990      -0.00056984       0.00020218      -0.00049269
P       -0.53759247       4.94585063       3.91365651      -0.00040149      -0.00043188      -0.00013690
P        2.36427547       4.40689137       6.78743449       0.00040149       0.00043188       0.00013690
P       -0.46618141       6.90650770       2.87043925       0.00012439      -0.00018378      -0.00003918
P        2.29286441       2.44623430       7.83065175      -0.00012439       0.00018378       0.00003918
24
Lattice="5.5868239 0.0 0.0 -2.0131378 10.632439 0.0 -1.71960285 -1.279697 10.701091" Properties=species:S:1:pos:R:3:forces:R:3 energy=-90.82781992 stress="0.00974246084193017 0.0003088173261153606 0.00021109110294664465 0.0003088173261153606 0.002369302785172685 -0.0002473526419341445 0.00021109110294664465 -0.0002473526419341445 0.002442964021061317" free_energy=-90.82781992 pbc="T T T"
P       -1.82074465      10.31584847       1.85155627      -0.14447779      -0.00636897       0.10921259
P        3.67482790      -0.96310647       8.84953473       0.14447779       0.00636897      -0.10921259
P        2.18311185       9.67705897       3.29851499       0.36357834       0.11030406      -0.01885569
P       -0.32902860      -0.32431697       7.40257601      -0.36357834      -0.11030406       0.01885569
P       -0.76064557       1.17675881       3.21205018       0.11020467      -0.10516128       0.00598411
P        2.61472882       8.17598319       7.48904082      -0.11020467       0.10516128      -0.00598411
P        0.65335802      -0.34516584       4.02520468      -0.32487107       0.01646886      -0.10565746
P        1.20072523       9.69790784       6.67588632       0.32487107      -0.01646886       0.10565746
P        3.46550917       3.95337757       0.60572455      -0.36160306      -0.10981119       0.00979570
P       -1.61142592       5.39936443      10.09536645       0.36160306       0.10981119      -0.00979570
P        2.83197613       1.82680246       0.46490890      -0.10888794       0.10741529       0.00571574
P       -0.97789288       7.52593954      10.23618210       0.10888794      -0.10741529      -0.00571574
P        1.87077011       3.17192260       1.96607935       0.15078530       0.02149993      -0.10841271
P       -0.01668686       6.18081940       8.73501165      -0.15078530      -0.02149993       0.10841271
P       -0.29335055       2.15173883      10.50764738       0.32122299      -0.03005608       0.10393624
P        2.14743380       7.20100317       0.19344362      -0.32122299       0.03005608      -0.10393624
P       -0.51394339       6.83231578       5.09088353      -0.17585245      -0.03435301      -0.07433692
P        2.36802664       2.52042622       5.61020747       0.17585245       0.03435301       0.07433692
P        3.23554568       6.27421890       3.92731110       0.53140580      -0.00944027       0.00775820
P       -1.38146243       3.07852310       6.77377990      -0.53140580       0.00944027      -0.00775820
P       -0.54565636       4.94585063       3.91365651      -0.16360594       0.08028438       0.00048677
P        2.39973961       4.40689137       6.78743449       0.16360594      -0.08028438      -0.00048677
P       -0.47317413       6.90650770       2.87043925      -0.18024832      -0.03894267       0.06918561
P        2.32725738       2.44623430       7.83065175       0.18024832       0.03894267      -0.06918561
24
Lattice="5.4216961 0.0 0.0 -1.9536362 10.632439 0.0 -1.66877715 -1.279697 10.701091" Properties=species:S:1:pos:R:3:forces:R:3 energy=-90.84465463 stress="-0.010682579603148832 -0.0003968176989641416 -0.00028937333998077026 -0.0003968176989641416 -0.00263419514753164 0.00027253746205706714 -0.00028937333998077026 0.00027253746205706714 -0.002733552358174568" free_energy=-90.84465463 pbc="T T T"
P       -1.76692954      10.31584847       1.85155627       0.15279274       0.00951543      -0.11523728
P        3.56621229      -0.96310647       8.84953473      -0.15279274      -0.00951543       0.11523728
P        2.11858637       9.67705897       3.29851499      -0.39667915      -0.12182587       0.01455593
P       -0.31930362      -0.32431697       7.40257601       0.39667915       0.12182587      -0.01455593
P       -0.73816344       1.17675881       3.21205018      -0.11565237       0.10968042      -0.00678582
P        2.53744619       8.17598319       7.48904082       0.11565237      -0.10968042       0.00678582
P        0.63404695      -0.34516584       4.02520468       0.35373540      -0.01199936       0.11819234
P        1.16523580       9.69790784       6.67588632      -0.35373540       0.01199936      -0.11819234
P        3.36308033       3.95337757       0.60572455       0.39359021       0.12260290      -0.00578486
P       -1.56379758       5.39936443      10.09536645      -0.39359021      -0.12260290       0.00578486
P        2.74827240       1.82680246       0.46490890       0.11321309      -0.11222580      -0.00429113
P       -0.94898965       7.52593954      10.23618210      -0.11321309       0.11222580       0.00429113
P        1.81547641       3.17192260       1.96607935      -0.15881230      -0.02426797       0.11452526
P       -0.01619366       6.18081940       8.73501165       0.15881230       0.02426797      -0.11452526
P       -0.28468009       2.15173883      10.50764738      -0.35028201       0.02771122      -0.11708968
P        2.08396284       7.20100317       0.19344362       0.35028201      -0.02771122       0.11708968
P       -0.49875296       6.83231578       5.09088353       0.18993118       0.03990365       0.08411713
P        2.29803571       2.52042622       5.61020747      -0.18993118      -0.03990365      -0.08411713
P        3.13991378       6.27421890       3.92731110      -0.57551723       0.00907323      -0.00693202
P       -1.34063103       3.07852310       6.77377990       0.57551723      -0.00907323       0.00693202
P       -0.52952859       4.94585063       3.91365651       0.17611037      -0.09077105      -0.00079218
P        2.32881134       4.40689137       6.78743449      -0.17611037       0.09077105       0.00079218
P       -0.45918869       6.90650770       2.87043925       0.19679579       0.04383457      -0.07844542
P        2.25847144       2.44623430       7.83065175      -0.19679579      -0.04383457       0.07844542
24
Lattice="5.50426 0.0 0.0 -1.983387 10.79192558 0.0 -1.69419 -1.29889246 10.701091" Properties=species:S:1:pos:R:3:forces:R:3 energy=-90.82622322 stress="0.0024045701016885044 -0.00039506849106557627 -0.00011714903186284217 -0.00039506849106557627 0.010143097483151092 0.00023929688838460428 -0.00011714903186284217 0.00023929688838460428 0.0018538394902535332" free_energy=-90.82622322 pbc="T T T"
P       -1.79383709      10.47058619       1.85155627      -0.05302923       0.08867626       0.07110113
P        3.62052009      -0.97755307       8.84953473       0.05302923      -0.08867626      -0.07110113
P        2.15084911       9.82221484       3.29851499       0.09345660       0.28617587      -0.01652571
P       -0.32416611      -0.32918172       7.40257601      -0.09345660      -0.28617587       0.01652571
P       -0.74940450       1.19441019       3.21205018       0.06363805      -0.47891764      -0.01489157
P        2.57608750       8.29862293       7.48904082      -0.06363805       0.47891764       0.01489157
P        0.64370249      -0.35034333       4.02520468      -0.08517441       0.08209283      -0.04720559
P        1.18298051       9.84337645       6.67588632       0.08517441      -0.08209283       0.04720559
P        3.41429475       4.01267823       0.60572455      -0.09442521      -0.28618733       0.00047814
P       -1.58761175       5.48035489      10.09536645       0.09442521       0.28618733      -0.00047814
P        2.79012427       1.85420450       0.46490890      -0.06290607       0.46946820       0.03609700
P       -0.96344127       7.63882862      10.23618210       0.06290607      -0.46946820      -0.03609700
P        1.84312326       3.21950143       1.96607935       0.05129598      -0.05803708      -0.07643287
P       -0.01644026       6.27353169       8.73501165      -0.05129598       0.05803708       0.07643287
P       -0.28901532       2.18401491      10.50764738       0.08553359      -0.10463439       0.04327415
P        2.11569832       7.30901821       0.19344362      -0.08553359       0.10463439      -0.04327415
P       -0.50634817       6.93480051       5.09088353      -0.01065493      -0.19913547      -0.09391897
P        2.33303117       2.55823261       5.61020747       0.01065493       0.19913547       0.09391897
P        3.18772973       6.36833218       3.92731110       0.09092198      -0.04397471      -0.00089395
P       -1.36104673       3.12470094       6.77377990      -0.09092198       0.04397471       0.00089395
P       -0.53759247       5.02003839       3.91365651      -0.06586555       0.48624389       0.00282809
P        2.36427547       4.47299473       6.78743449       0.06586555      -0.48624389      -0.00282809
P       -0.46618141       7.01010531       2.87043925      -0.02178633      -0.21533030       0.09864554
P        2.29286441       2.48292781       7.83065175       0.02178633       0.21533030      -0.09864554
24
Lattice="5.50426 0.0 0.0 -1.983387 10.47295241 0.0 -1.69419 -1.26050155 10.701091" Properties=species:S:1:pos:R:3:forces:R:3 energy=-90.84144041 stress="-0.0025967972606681547 0.00035860276734853234 0.00010171714396795174 0.00035860276734853234 -0.011328599090989808 -0.00024548488905275136 0.00010171714396795174 -0.00024548488905275136 -0.0020525753074326727" free_energy=-90.84144041 pbc="T T T"
P       -1.79383709      10.16111073       1.85155627       0.05608041      -0.09239707      -0.07433287
P        3.62052009      -0.94865987       8.84953473      -0.05608041       0.09239707       0.07433287
P        2.15084911       9.53190307       3.29851499      -0.10515942      -0.32200176       0.01683827
P       -0.32416611      -0.31945221       7.40257601       0.10515942       0.32200176      -0.01683827
P       -0.74940450       1.15910743       3.21205018      -0.06360230       0.52852413       0.01403773
P        2.57608750       8.05334343       7.48904082       0.06360230      -0.52852413      -0.01403773
P        0.64370249      -0.33998835       4.02520468       0.08891338      -0.08524389       0.05008179
P        1.18298051       9.55243921       6.67588632      -0.08891338       0.08524389      -0.05008179
P        3.41429475       3.89407691       0.60572455       0.10495990       0.32265868       0.00197052
P       -1.58761175       5.31837395      10.09536645      -0.10495990      -0.32265868      -0.00197052
P        2.79012427       1.79940042       0.46490890       0.06213507      -0.51759745      -0.03666436
P       -0.96344127       7.41305044      10.23618210      -0.06213507       0.51759745       0.03666436
P        1.84312326       3.12434376       1.96607935      -0.05290010       0.06170233       0.07925039
P       -0.01644026       6.08810710       8.73501165       0.05290010      -0.06170233      -0.07925039
P       -0.28901532       2.11946274      10.50764738      -0.09142142       0.11016807      -0.04607649
P        2.11569832       7.09298812       0.19344362       0.09142142      -0.11016807       0.04607649
P       -0.50634817       6.72983104       5.09088353       0.00981063       0.21813260       0.10669286
P        2.33303117       2.48261982       5.61020747      -0.00981063      -0.21813260      -0.10669286
P        3.18772973       6.18010561       3.92731110      -0.09155534       0.04360250       0.00195567
P       -1.36104673       3.03234525       6.77377990       0.09155534      -0.04360250      -0.00195567
P       -0.53759247       4.87166287       3.91365651       0.06892576      -0.53271033      -0.00122322
P        2.36427547       4.34078799       6.78743449      -0.06892576       0.53271033       0.00122322
P       -0.46618141       6.80291008       2.87043925       0.02230388       0.23646402      -0.11162924
P        2.29286441       2.40954078       7.83065175      -0.02230388      -0.23646402       0.11162924
24
Lattice="5.50426 0.0 0.0 -1.983387 10.632439 0.0 -1.69419 -1.279697 10.86160736" Properties=species:S:1:pos:R:3:forces:R:3 energy=-90.82621146 stress="0.0025001001624901506 2.7533294037191335e-06 -0.00019988722581664576 2.7533294037191335e-06 0.0018721969856870353 0.00012972386271385044 -0.00019988722581664576 0.00012972386271385044 0.010098698408119975" free_energy=-90.82621146 pbc="T T T"
P       -1.79383709      10.31584847       1.87932961      -0.07177306       0.03135969       0.46375315
P        3.62052009      -0.96310647       8.98227775       0.07177306      -0.03135969      -0.46375315
P        2.15084911       9.67705897       3.34799271       0.08928588       0.03394615      -0.06689737
P       -0.32416611      -0.32431697       7.51361465      -0.08928588      -0.03394615       0.06689737
P       -0.74940450       1.17675881       3.26023093       0.05105896      -0.07633263      -0.05788280
P        2.57608750       8.17598319       7.60137643      -0.05105896       0.07633263       0.05788280
P        0.64370249      -0.34516584       4.08558275      -0.09107897       0.02110574      -0.31818559
P        1.18298051       9.69790784       6.77602461       0.09107897      -0.02110574       0.31818559
P        3.41429475       3.95337757       0.61481042      -0.08641634      -0.03436909       0.04652524
P       -1.58761175       5.39936443      10.24679694       0.08641634       0.03436909      -0.04652524
P        2.79012427       1.82680246       0.47188253      -0.05623662       0.07483502       0.09606113
P       -0.96344127       7.52593954      10.38972483       0.05623662      -0.07483502      -0.09606113
P        1.84312326       3.17192260       1.99557054       0.07546810      -0.00773069      -0.46691788
P       -0.01644026       6.18081940       8.86603682      -0.07546810       0.00773069       0.46691788
P       -0.28901532       2.15173883      10.66526208       0.08601856      -0.03928651       0.31309862
P        2.11569832       7.20100317       0.19634528      -0.08601856       0.03928651      -0.31309862
P       -0.50634817       6.83231578       5.16724678      -0.05417234      -0.07080578      -0.40958722
P        2.33303117       2.52042622       5.69436058       0.05417234       0.07080578       0.40958722
P        3.18772973       6.27421890       3.98622076       0.09309060       0.03049816       0.01034152
P       -1.36104673       3.07852310       6.87538660      -0.09309060      -0.03049816      -0.01034152
P       -0.53759247       4.94585063       3.97236135       0.00655808       0.09940698       0.01801220
P        2.36427547       4.40689137       6.88924601      -0.00655808      -0.09940698      -0.01801220
P       -0.46618141       6.90650770       2.91349584      -0.05124506      -0.08488281       0.37745173
P        2.29286441       2.44623430       7.94811152       0.05124506       0.08488281      -0.37745173
24
Lattice="5.50426 0.0 0.0 -1.983387 10.632439 0.0 -1.69419 -1.279697 10.54057464" Properties=species:S:1:pos:R:3:forces:R:3 energy=-90.84159625 stress="-0.0026700390609020177 1.1479314927724105e-05 0.00014829120392567398 1.1479314927724105e-05 -0.0020299541497341518 -8.665202587382557e-05 0.00014829120392567398 -8.665202587382557e-05 -0.01134758500028663" free_energy=-90.84159625 pbc="T T T"
P       -1.79383709      10.31584847       1.82378293       0.07131712      -0.03201658      -0.51279301
P        3.62052009      -0.96310647       8.71679171      -0.07131712       0.03201658       0.51279301
P        2.15084911       9.67705897       3.24903727      -0.09314423      -0.03488252       0.06811434
P       -0.32416611      -0.32431697       7.29153737       0.09314423       0.03488252      -0.06811434
P       -0.74940450       1.17675881       3.16386942      -0.05298225       0.08056687       0.06071885
P        2.57608750       8.17598319       7.37670522       0.05298225      -0.08056687      -0.06071885
P        0.64370249      -0.34516584       3.96482661       0.09994317      -0.02241919       0.35887378
P        1.18298051       9.69790784       6.57574803      -0.09994317       0.02241919      -0.35887378
P        3.41429475       3.95337757       0.59663869       0.08786452       0.03621518      -0.04794377
P       -1.58761175       5.39936443       9.94393595      -0.08786452      -0.03621518       0.04794377
P        2.79012427       1.82680246       0.45793527       0.05941704      -0.07985746      -0.10045184
P       -0.96344127       7.52593954      10.08263937      -0.05941704       0.07985746       0.10045184
P        1.84312326       3.17192260       1.93658816      -0.07487076       0.00658446       0.51610771
P       -0.01644026       6.18081940       8.60398648       0.07487076      -0.00658446      -0.51610771
P       -0.28901532       2.15173883      10.35003267      -0.09428515       0.04546475      -0.35398787
P        2.11569832       7.20100317       0.19054197       0.09428515      -0.04546475       0.35398787
P       -0.50634817       6.83231578       5.01452028       0.05436808       0.07300596       0.45879205
P        2.33303117       2.52042622       5.52605436      -0.05436808      -0.07300596      -0.45879205
P        3.18772973       6.27421890       3.86840143      -0.09333658      -0.03174477      -0.00990869
P       -1.36104673       3.07852310       6.67217321       0.09333658       0.03174477       0.00990869
P       -0.53759247       4.94585063       3.85495166      -0.00690446      -0.10266472      -0.01906923
P        2.36427547       4.40689137       6.68562298       0.00690446       0.10266472       0.01906923
P       -0.46618141       6.90650770       2.82738266       0.05196138       0.08860460      -0.42284035
P        2.29286441       2.44623430       7.71319198      -0.05196138      -0.08860460       0.42284035
24
Lattice="5.50426 0.0825639 0.0 -1.983387 10.60268819 0.0 -1.69419 -1.30510985 10.701091" Properties=species:S:1:pos:R:3:forces:R:3 energy=-90.86514974 stress="0.0002769852051507354 0.004020193202409761 -0.00020810207543380479 0.004020193202409761 -0.000413094456258839 -8.859673032123177e-05 -0.00020810207543380479 -8.859673032123177e-05 -3.538111171020279e-05" free_energy=-90.86514974 pbc="T T T"
P       -1.79383709      10.28894090       1.85155627       0.00912048      -0.08090314      -0.01714707
P        3.62052009      -0.90879866       8.84953473      -0.00912048       0.08090314       0.01714707
P        2.15084911       9.70932170       3.29851499       0.15095703       0.15536832      -0.01632727
P       -0.32416611      -0.32917946       7.40257601      -0.15095703      -0.15536832       0.01632727
P       -0.74940450       1.16551774       3.21205018      -0.17372668       0.09031721       0.00516716
P        2.57608750       8.21462450       7.48904082       0.17372668      -0.09031721      -0.00516716
P        0.64370249      -0.33551030       4.02520468       0.02419490      -0.14067285       0.02710558
P        1.18298051       9.71565254       6.67588632      -0.02419490       0.14067285      -0.02710558
P        3.41429475       4.00459199       0.60572455      -0.15208732      -0.15270115       0.01397755
P       -1.58761175       5.37555025      10.09536645       0.15208732       0.15270115      -0.01397755
P        2.79012427       1.86865432       0.46490890       0.17768796      -0.08969518      -0.00687317
P       -0.96344127       7.51148792      10.23618210      -0.17768796       0.08969518       0.00687317
P        1.84312326       3.19956944       1.96607935       0.00868290       0.07854850       0.01115659
P       -0.01644026       6.18057280       8.73501165      -0.00868290      -0.07854850      -0.01115659
P       -0.28901532       2.14740360      10.50764738      -0.04354166       0.14622053      -0.02593862
P        2.11569832       7.23273864       0.19344362       0.04354166      -0.14622053       0.02593862
P       -0.50634817       6.82472056       5.09088353      -0.06806279      -0.03445744      -0.02958848
P        2.33303117       2.55542168       5.61020747       0.06806279       0.03445744       0.02958848
P        3.18772973       6.32203485       3.92731110      -0.01314788       0.17034310       0.00306117
P       -1.36104673       3.05810739       6.77377990       0.01314788      -0.17034310      -0.00306117
P       -0.53759247       4.93778674       3.91365651       0.15957456      -0.09728034       0.00274147
P        2.36427547       4.44235550       6.78743449      -0.15957456       0.09728034      -0.00274147
P       -0.46618141       6.89951497       2.87043925      -0.07624812      -0.05166113       0.03545718
P        2.29286441       2.48062727       7.83065175       0.07624812       0.05166113      -0.03545718
24
Lattice="5.50426 -0.0825639 0.0 -1.983387 10.66218981 0.0 -1.69419 -1.25428415 10.701091" Properties=species:S:1:pos:R:3:forces:R:3 energy=-90.86525035 stress="-0.0004222750795490824 -0.003941963949546604 0.0002018255514417253 -0.003941963949546604 0.0003434738859971761 0.00010966234166634522 0.0002018255514417253 0.00010966234166634522 -2.7031426771397314e-05" free_energy=-90.86525035 pbc="T T T"
P       -1.79383709      10.34275603       1.85155627      -0.00738047       0.07866516       0.01543984
P        3.62052009      -1.01741427       8.84953473       0.00738047      -0.07866516      -0.01543984
P        2.15084911       9.64479623       3.29851499      -0.15420087      -0.15567250       0.01581392
P       -0.32416611      -0.31945447       7.40257601       0.15420087       0.15567250      -0.01581392
P       -0.74940450       1.18799988       3.21205018       0.16647751      -0.07933080      -0.00594420
P        2.57608750       8.13734188       7.48904082      -0.16647751       0.07933080       0.00594420
P        0.64370249      -0.35482137       4.02520468      -0.01812423       0.13430428      -0.02309388
P        1.18298051       9.68016313       6.67588632       0.01812423      -0.13430428       0.02309388
P        3.41429475       3.90216315       0.60572455       0.15429264       0.15427474      -0.01542882
P       -1.58761175       5.42317861      10.09536645      -0.15429264      -0.15427474       0.01542882
P        2.79012427       1.78495060       0.46490890      -0.17084693       0.07832810       0.00841654
P       -0.96344127       7.54039116      10.23618210       0.17084693      -0.07832810      -0.00841654
P        1.84312326       3.14427575       1.96607935      -0.01025617      -0.07576756      -0.00881043
P       -0.01644026       6.18106601       8.73501165       0.01025617       0.07576756       0.00881043
P       -0.28901532       2.15607406      10.50764738       0.03678355      -0.13839209       0.02279055
P        2.11569832       7.16926770       0.19344362      -0.03678355       0.13839209      -0.02279055
P       -0.50634817       6.83991101       5.09088353       0.06720967       0.03400433       0.02970162
P        2.33303117       2.48543075       5.61020747      -0.06720967      -0.03400433      -0.02970162
P        3.18772973       6.22640296       3.92731110       0.00411399      -0.16473656      -0.00179165
P       -1.36104673       3.09893880       6.77377990      -0.00411399       0.16473656       0.00179165
P       -0.53759247       4.95391452       3.91365651      -0.15165985       0.09173862      -0.00283869
P        2.36427547       4.37142724       6.78743449       0.15165985      -0.09173862       0.00283869
P       -0.46618141       6.91350042       2.87043925       0.07716254       0.04968701      -0.03615387
P        2.29286441       2.41184134       7.83065175      -0.07716254      -0.04968701       0.03615387
24
Lattice="5.50426 0.0 0.0 -1.983387 10.632439 0.15948658 -1.69419 -1.279697 10.68189554" Properties=species:S:1:pos:R:3:forces:R:3 energy=-90.86829324 stress="-0.00028096789339943415 -9.16336426920854e-05 8.608182032461225e-05 -9.16336426920854e-05 0.00017031073007653266 0.0032630107268633037 8.608182032461225e-05 0.0032630107268633037 0.00011391538088283156" free_energy=-90.86829324 pbc="T T T"
P       -1.79383709      10.31584847       2.00629399      -0.00630000       0.13295241       0.03774520
P        3.62052009      -0.96310647       8.83508813       0.00630000      -0.13295241      -0.03774520
P        2.15084911       9.67705897       3.44367087      -0.02421401      -0.02512598       0.07796216
P       -0.32416611      -0.32431697       7.39771125       0.02421401       0.02512598      -0.07796216
P       -0.74940450       1.17675881       3.22970156       0.00270174      -0.02211887      -0.13368394
P        2.57608750       8.17598319       7.61168056      -0.00270174       0.02211887       0.13368394
P        0.64370249      -0.34516584       4.02002719       0.02662632      -0.09182928       0.02764480
P        1.18298051       9.69790784       6.82135493      -0.02662632       0.09182928      -0.02764480
P        3.41429475       3.95337757       0.66502522       0.01816827      -0.00060929      -0.08336983
P       -1.58761175       5.39936443      10.17635690      -0.01816827       0.00060929       0.08336983
P        2.79012427       1.82680246       0.49231093      -0.00443892       0.04920250       0.13818085
P       -0.96344127       7.52593954      10.34907119       0.00443892      -0.04920250      -0.13818085
P        1.84312326       3.17192260       2.01365818       0.00474750      -0.13394119      -0.01030004
P       -0.01644026       6.18081940       8.82772394      -0.00474750       0.13394119       0.01030004
P       -0.28901532       2.15173883      10.53992345      -0.02706190       0.09106471      -0.05428366
P        2.11569832       7.20100317       0.30145867       0.02706190      -0.09106471       0.05428366
P       -0.50634817       6.83231578       5.19336826      -0.03246552      -0.15409825      -0.10261323
P        2.33303117       2.52042622       5.64801386       0.03246552       0.15409825       0.10261323
P        3.18772973       6.27421890       4.02142438       0.00064247       0.00284782       0.02723068
P       -1.36104673       3.07852310       6.81995774      -0.00064247      -0.00284782      -0.02723068
P       -0.53759247       4.94585063       3.98784426       0.00379661      -0.00264918       0.15647431
P        2.36427547       4.40689137       6.85353786      -0.00379661       0.00264918      -0.15647431
P       -0.46618141       6.90650770       2.97403686       0.03681386       0.16319153      -0.11017029
P        2.29286441       2.44623430       7.86734526      -0.03681386      -0.16319153       0.11017029
24
Lattice="5.50426 0.0 0.0 -1.983387 10.632439 -0.15948658 -1.69419 -1.279697 10.72028646" Properties=species:S:1:pos:R:3:forces:R:3 energy=-90.86856717 stress="0.00023904558026115972 0.00010732668781182106 -5.628948695741697e-05 0.00010732668781182106 -0.0003150109066926662 -0.0033064668222126644 -5.628948695741697e-05 -0.0033064668222126644 -0.00010613145129723266" free_energy=-90.86856717 pbc="T T T"
P       -1.79383709      10.31584847       1.69681855       0.01157644      -0.13715700      -0.04138295
P        3.62052009      -0.96310647       8.86398133      -0.01157644       0.13715700       0.04138295
P        2.15084911       9.67705897       3.15335911       0.02260197       0.02733726      -0.07796712