2
Lattice="3.451446 0.0 1.385316 1.455721 2.957677 1.365355 0.601768 0.410422 3.492936" Properties=species:S:1:pos:R:3:forces:R:3 energy=-7.7766854 stress="-0.017464120413908366 0.0020885825610968745 0.0009353798017921995 0.0020885825610968745 -0.018610998976574256 -0.0052036023692800595 0.0009353798017921995 -0.0052036023692800595 -0.019419136995311222" free_energy=-7.77852554 pbc="T T T"
P        1.50570077       1.04723575       3.23816629      -0.00705885       0.00000000      -0.00283323
P        4.00323423       2.32086325       3.00544071       0.00705885      -0.00000000       0.00283323
2
Lattice="3.4970927 0.0 1.40363734 1.46962723 3.00342355 1.39673225 0.60670946 0.4294276 3.5466485" Properties=species:S:1:pos:R:3:forces:R:3 energy=-7.78527922 stress="0.0020029165438687196 0.0011304828422072555 -0.002096865717789907 0.0011304828422072555 0.007867777675913021 -0.0028165404933613173 -0.002096865717789907 -0.0028165404933613173 0.006385527973121701" free_energy=-7.78708058 pbc="T T T"
P        1.52166975       1.07292659       3.28982157      -0.22775075      -0.00000000      -0.09141292
P        4.05175964       2.35992456       3.05719652       0.22775075       0.00000000       0.09141292
2
Lattice="3.48542861 0.0 1.39895569 1.46607377 2.99173395 1.38871443 0.60544677 0.4245711 3.53292335" Properties=species:S:1:pos:R:3:forces:R:3 energy=-7.78626641 stress="-0.002638572773511788 0.0013595974824001128 -0.001373957153925286 0.0013595974824001128 0.0015550355170929728 -0.00338736921357029 -0.001373957153925286 -0.00338736921357029 0.00023310376967897398" free_energy=-7.78808131 pbc="T T T"
P        1.51758893       1.06636181       3.27662200      -0.17372770      -0.00000000      -0.06972954
P        4.03936022       2.34994324       3.04397147       0.17372770       0.00000000       0.06972954
2
Lattice="3.48743436 0.0 1.39976074 1.46668482 2.99374409 1.39009317 0.6056639 0.42540622 3.53528353" Properties=species:S:1:pos:R:3:forces:R:3 energy=-7.78624688 stress="-0.0018250109520010294 0.0013195138866427779 -0.0015009528467587038 0.0013195138866427779 0.0026622856585375534 -0.0032875027644392904 -0.0015009528467587038 -0.0032875027644392904 0.001312096421023996" free_energy=-7.78805972 pbc="T T T"
P        1.51829064       1.06749069       3.27889178      -0.18312538      -0.00000000      -0.07350152
P        4.04149244       2.35165962       3.04624566       0.18312538       0.00000000       0.07350152
2
Lattice="3.50186503 0.0 1.40555282 1.46971471 2.9976343 1.40341704 0.61099888 0.43617229 3.54286438" Properties=species:S:1:pos:R:3:forces:R:3 energy=-7.79018527 stress="-0.0049476300159977974 7.787966593701528e-05 -0.0030864669136982078 7.787966593701528e-05 0.0027862812077303783 -0.00019403287750184103 -0.0030864669136982078 -0.00019403287750184103 0.001503325450347253" free_energy=-7.79190252 pbc="T T T"
P        1.51738054       1.07653779       3.28563309      -0.07704680      -0.00000000      -0.03092448
P        4.06519808       2.35726880       3.06620115       0.07704680       0.00000000       0.03092448
2
Lattice="3.50779044 0.0 1.40793112 1.47095882 2.99923167 1.40888799 0.61318949 0.44059297 3.54597717" Properties=species:S:1:pos:R:3:forces:R:3 energy=-7.79108708 stress="-0.00631653060506324 -0.00043557323265118014 -0.0037607185511116903 -0.00043557323265118014 0.0028062792651130913 0.001085209456577785 -0.0037607185511116903 0.001085209456577785 0.0015436633751184496" free_energy=-7.79277471 pbc="T T T"
P        1.51700090       1.08025264       3.28839876      -0.03064351      -0.00000000      -0.01229947
P        4.07493785       2.35957199       3.07439752       0.03064351       0.00000000       0.01229947
2
Lattice="3.51964126 0.0 1.41268771 1.47344704 3.00242641 1.41982988 0.61757071 0.44943434 3.55220276" Properties=species:S:1:pos:R:3:forces:R:3 energy=-7.79159962 stress="-0.009198855337585014 -0.001462860217514416 -0.005136306118292349 -0.001462860217514416 0.0027690150339260275 0.0036446438390071406 -0.005136306118292349 0.0036446438390071406 0.0015364239610305018" free_energy=-7.7932385 pbc="T T T"
P        1.51621800       1.08768236       3.29392064       0.06723194       0.00000000       0.02698506
P        4.09444101       2.36417839       3.09079971      -0.06723194      -0.00000000      -0.02698506
2
Lattice="3.51482723 0.0 1.41075549 1.47243628 3.00112865 1.41538507 0.61579097 0.4458428 3.5496738" Properties=species:S:1:pos:R:3:forces:R:3 energy=-7.79159934 stress="-0.008010862281582484 -0.001045580517311216 -0.0045758343960476296 -0.001045580517311216 0.0027970865645026897 0.0026050122351154955 -0.0045758343960476296 0.0026050122351154955 0.00155298739708086" free_energy=-7.7932567 pbc="T T T"
P        1.51653215       1.08466426       3.29167599       0.02686884       0.00000000       0.01078442
P        4.08652233       2.36230719       3.08413837      -0.02686884      -0.00000000      -0.01078442
2
Lattice="3.55124878 0.0 1.42537411 1.49060254 2.99621495 1.42280527 0.63581726 0.44647737 3.55245985" Properties=species:S:1:pos:R:3:forces:R:3 energy=-7.79428645 stress="-0.0037251001434660306 -0.00017548928523224147 -0.002206753190690423 -0.00017548928523224147 0.0016734681714811353 0.0004372230882074796 -0.002206753190690423 0.0004372230882074796 0.0008871854585484163" free_energy=-7.79590972 pbc="T T T"
P        1.53807639       1.08391177       3.29641648       0.01975205       0.00000000       0.00792793
P        4.13959219       2.35878056       3.10422275      -0.01975205      -0.00000000      -0.00792793
2
Lattice="3.56790099 0.0 1.43205785 1.4989083 2.99396837 1.42619784 0.64497343 0.4467675 3.55373365" Properties=species:S:1:pos:R:3:forces:R:3 energy=-7.7949563 stress="-0.0019736448709512964 0.00021027805900187058 -0.0012252410530243585 0.00021027805900187058 0.001198143235320389 -0.0005238971341255013 -0.0012252410530243585 -0.0005238971341255013 0.000587203956034658" free_energy=-7.79654849 pbc="T T T"
P        1.54791569       1.08356772       3.29857950       0.01625243       0.00000000       0.00652328
P        4.16386703       2.35716815       3.11340984      -0.01625243      -0.00000000      -0.00652328
2
Lattice="3.60120539 0.0 1.44542533 1.5155198 2.98947522 1.43298299 0.66328577 0.44734776 3.55628124" Properties=species:S:1:pos:R:3:forces:R:3 energy=-7.79536683 stress="0.0011744427022411838 0.0009683278296904232 0.0005610782471355358 0.0009683278296904232 0.00032528036124992 -0.002412540533808294 0.0005610782471355358 -0.002412540533808294 1.7451321931060848e-06" free_energy=-7.79688095 pbc="T T T"
P        1.56755096       1.08287962       3.30288813       0.00956787       0.00000000       0.00384028
P        4.21246000       2.35394336       3.13180143      -0.00956787      -0.00000000      -0.00384028
2
Lattice="3.58833727 0.0 1.44026041 1.50910146 2.99121128 1.43036135 0.65621027 0.44712356 3.5552969" Properties=species:S:1:pos:R:3:forces:R:3 energy=-7.79534891 stress="-5.25285408034335e-08 0.0006769405981335863 -0.00010614261735705888 0.0006769405981335863 0.0006480080513730089 -0.0016865637064724796 -0.00010614261735705888 -0.0016865637064724796 0.00022179346857686966" free_energy=-7.79689425 pbc="T T T"
P        1.55995791       1.08314549       3.30122079       0.01231920       0.00000000       0.00494459
P        4.19369109       2.35518935       3.12469787      -0.01231920      -0.00000000      -0.00494459
2
Lattice="3.59302645 0.0 1.44214252 1.50967301 2.99011561 1.43571986 0.65877463 0.45197227 3.55569041" Properties=species:S:1:pos:R:3:forces:R:3 energy=-7.79552657 stress="-9.577367314433852e-05 1.787394075548353e-05 2.236218500186968e-05 1.787394075548353e-05 -0.00014135902188293874 -4.4532050383043515e-05 2.236218500186968e-05 -4.4532050383043515e-05 -0.00014251238411280156" free_energy=-7.79707915 pbc="T T T"
P        1.56296186       1.08650811       3.30323196       0.00070370       0.00000000       0.00028245
P        4.19851223       2.35557978       3.13032083      -0.00070370      -0.00000000      -0.00028245
2
Lattice="3.59305142 0.0 1.44215254 1.50967605 2.99010978 1.43574839 0.65878828 0.45199809 3.55569251" Properties=species:S:1:pos:R:3:forces:R:3 energy=-7.79552689 stress="-9.654411878932842e-05 1.3962923756077319e-05 2.2676120427883355e-05 1.3962923756077319e-05 -0.00014512791971954856 -3.4787956131933594e-05 2.2676120427883355e-05 -3.4787956131933594e-05 -0.00014393896840464996" free_energy=-7.79707949 pbc="T T T"
P        1.56297784       1.08652601       3.30324266       0.00063431       0.00000000       0.00025460
P        4.19853791       2.35558186       3.13035078      -0.00063431      -0.00000000      -0.00025460
2
Lattice="3.59310135 0.0 1.44217259 1.50968214 2.99009811 1.43580545 0.65881559 0.45204972 3.5556967" Properties=species:S:1:pos:R:3:forces:R:3 energy=-7.79552758 stress="-9.757648312327689e-05 6.740492814461122e-06 2.3985782529276564e-05 6.740492814461122e-06 -0.00015351607732060597 -1.6793629148430026e-05 2.3985782529276564e-05 -1.6793629148430026e-05 -0.00014770862146386404" free_energy=-7.79708023 pbc="T T T"
P        1.56300985       1.08656182       3.30326409       0.00050706       0.00000000       0.00020352
P        4.19858923       2.35558601       3.13041065      -0.00050706      -0.00000000      -0.00020352
2
Lattice="3.5930913 0.0 1.44216855 1.50968091 2.99010046 1.43579397 0.65881009 0.45203933 3.55569585" Properties=species:S:1:pos:R:3:forces:R:3 energy=-7.79552736 stress="-9.780288138380006e-05 8.350053187843896e-06 2.3588666511142242e-05 8.350053187843896e-06 -0.0001518409748598923 -2.0803773795773514e-05 2.3588666511142242e-05 -2.0803773795773514e-05 -0.00014710502384082723" free_energy=-7.79708 pbc="T T T"
P        1.56300338       1.08655461       3.30325976       0.00053753       0.00000000       0.00021575
P        4.19857892       2.35558518       3.13039861      -0.00053753      -0.00000000      -0.00021575
2
Lattice="3.59343217 0.0 1.44230537 1.50976809 2.99051694 1.43606981 0.65881751 0.4522179 3.55617041" Properties=species:S:1:pos:R:3:forces:R:3 energy=-7.79551505 stress="6.580250805766845e-05 -8.413554301690632e-08 -2.8865169669563563e-06 -8.413554301690632e-08 7.294642081448104e-05 2.09633567011041e-07 -2.8865169669563563e-06 2.09633567011041e-07 7.18355507787472e-05" free_energy=-7.79706717 pbc="T T T"
P        1.56312548       1.08679266       3.30372267      -0.00194181      -0.00000000      -0.00077939
P        4.19889229       2.35594218       3.13082292       0.00194181       0.00000000       0.00077939
2
Lattice="3.59330937 0.0 1.44225608 1.50973668 2.99036691 1.43597044 0.65881484 0.45215357 3.55599945" Properties=species:S:1:pos:R:3:forces:R:3 energy=-7.79551975 stress="6.7756325108398446e-06 3.0150858134404256e-06 6.754860768468905e-06 3.0150858134404256e-06 -8.345159844689203e-06 -7.5119371009111656e-06 6.754860768468905e-06 -7.5119371009111656e-06 -7.342548784743821e-06" free_energy=-7.79707206 pbc="T T T"
P        1.56308150       1.08670691       3.30355591      -0.00104965      -0.00000000      -0.00042130
P        4.19877939       2.35581357       3.13067006       0.00104965       0.00000000       0.00042130
2
Lattice="3.59330651 0.0 1.44225493 1.50971888 2.99042489 1.43601066 0.65879021 0.4521912 3.55605668" Properties=species:S:1:pos:R:3:forces:R:3 energy=-7.79552144 stress="-2.3688936355249556e-05 -2.087928357317845e-06 -1.2883460994264934e-05 -2.087928357317845e-06 7.2263630923655035e-06 5.20197329794915e-06 -1.2883460994264934e-05 5.20197329794915e-06 3.2384943910922907e-06" free_energy=-7.79707336 pbc="T T T"
P        1.56300815       1.08674962       3.30358865      -0.00012742      -0.00000000      -0.00005114
P        4.19880745       2.35586647       3.13073362       0.00012742       0.00000000       0.00005114
