2
Lattice="3.258912 -1.215239 4.225148 -1.58203 1.072829 1.529776 -1.694537 -1.663641 -0.586919" Properties=species:S:1:pos:R:3:forces:R:3 energy=-7.60289207 stress="-0.023269888054778934 -0.000961241001776076 -0.00041299209550917445 -0.000961241001776076 -0.02289240434783406 -0.00031071141816526503 -0.00041299209550917445 -0.00031071141816526503 -0.022082872300516844" free_energy=-7.60957429 pbc="T T T"
P       -2.00936958      -0.49623981       2.13198845      -0.01320745      -0.02101156      -0.00845282
P        0.46018021      -0.28424780       4.53382900       0.01320745       0.02101156       0.00845282
2
Lattice="3.31295642 -1.23177127 4.29182476 -1.60689143 1.08946022 1.55344297 -1.72372885 -1.69185873 -0.59694657" Properties=species:S:1:pos:R:3:forces:R:3 energy=-7.61135174 stress="0.007882064384196513 -6.206604110247669e-05 -0.00023913208757764444 -6.206604110247669e-05 0.007863178351528721 0.00021504041784604726 -0.00023913208757764444 0.00021504041784604726 0.007881949877470089" free_energy=-7.61840905 pbc="T T T"
P       -2.04280364      -0.50620280       2.16417708      -0.01085572      -0.01520374      -0.00796049
P        0.46953358      -0.28651037       4.60512863       0.01085572       0.01520374       0.00796049
2
Lattice="3.29627389 -1.22666806 4.27124286 -1.59921716 1.08432646 1.54613741 -1.71471786 -1.68314843 -0.59385124" Properties=species:S:1:pos:R:3:forces:R:3 energy=-7.61337022 stress="-0.0009539651060672874 -0.0003129865543473046 -0.00029565978173085077 -0.0003129865543473046 -0.0008628420000971719 7.606241310595961e-05 -0.00029565978173085077 7.606241310595961e-05 -0.0006253579143476165" free_energy=-7.62026372 pbc="T T T"
P       -2.03248422      -0.50312900       2.15424040      -0.01157150      -0.01689721      -0.00813801
P        0.46664743      -0.28581037       4.58312038       0.01157150       0.01689721       0.00813801
2
Lattice="3.29791313 -1.2271695 4.27326525 -1.59997124 1.08483091 1.54685526 -1.71560328 -1.68400431 -0.59415539" Properties=species:S:1:pos:R:3:forces:R:3 energy=-7.61334706 stress="-5.3315276787241964e-05 -0.00028750257245046927 -0.0002898992557812263 -0.00028750257245046927 2.6824670540093305e-05 9.010270660916139e-05 -0.0002898992557812263 9.010270660916139e-05 0.00024205550434655302" free_energy=-7.62025493 pbc="T T T"
P       -2.03349821      -0.50343105       2.15521679      -0.01150137      -0.01672766      -0.00812176
P        0.46693102      -0.28587912       4.58528292       0.01150137       0.01672766       0.00812176
2
Lattice="3.29787486 -1.2271578 4.27321804 -1.59995364 1.08481913 1.5468385 -1.71558262 -1.68398433 -0.59414829" Properties=species:S:1:pos:R:3:forces:R:3 energy=-7.6133476 stress="-7.487072801006385e-05 -0.0002880634469435394 -0.000290036481600868 -0.0002880634469435394 5.503999924550641e-06 8.980709001243218e-05 -0.000290036481600868 8.980709001243218e-05 0.0002212312833668831" free_energy=-7.62025513 pbc="T T T"
P       -2.03347456      -0.50342399       2.15519396      -0.01150327      -0.01673200      -0.00812232
P        0.46692440      -0.28587754       4.58523247       0.01150327       0.01673200       0.00812232
2
Lattice="3.29874471 -1.22678815 4.27340886 -1.59955013 1.08442702 1.54625172 -1.71617276 -1.68432797 -0.59431296" Properties=species:S:1:pos:R:3:forces:R:3 energy=-7.61340123 stress="-1.0887956904083169e-05 -4.8187215440361526e-05 -6.68915827435347e-05 -4.8187215440361526e-05 4.0563318148750255e-05 2.5263756488837666e-05 -6.68915827435347e-05 2.5263756488837666e-05 7.278156383393909e-05" free_energy=-7.62029984 pbc="T T T"
P       -2.03382578      -0.50473905       2.15416952      -0.00972854      -0.01417427      -0.00685659
P        0.46835026      -0.28530952       4.58512685       0.00972854       0.01417427       0.00685659
2
Lattice="3.30126979 -1.22571509 4.27396279 -1.59837881 1.08328874 1.54454836 -1.71788589 -1.68532553 -0.59479095" Properties=species:S:1:pos:R:3:forces:R:3 energy=-7.61349222 stress="0.00015808117951036826 0.0006103948386861894 0.0005521997378530216 0.0006103948386861894 0.0001261095608167796 -0.000155795201826977 0.0005521997378530216 -0.000155795201826977 -0.0003457633589256779" free_energy=-7.62036059 pbc="T T T"
P       -2.03484767      -0.50855736       2.15119553      -0.00457223      -0.00672440      -0.00318033
P        0.47249165      -0.28365983       4.58482045       0.00457223       0.00672440       0.00318033
2
Lattice="3.30030103 -1.22636019 4.27369532 -1.59904961 1.08382173 1.54532148 -1.71708171 -1.68467868 -0.59454562" Properties=species:S:1:pos:R:3:forces:R:3 energy=-7.61350898 stress="0.00011193939399168644 0.00024678838454312814 0.00025162918667399897 0.00024678838454312814 3.52094951752775e-05 -8.336504743984341e-05 0.00025162918667399897 -8.336504743984341e-05 -0.00015113660807201812" free_energy=-7.62039399 pbc="T T T"
P       -2.03585268      -0.50873795       2.15157907      -0.00220667      -0.00328686      -0.00149684
P        0.47201147      -0.28242619       4.58593824       0.00220667       0.00328686       0.00149684
2
Lattice="3.29948249 -1.22690525 4.27346932 -1.59961639 1.08427207 1.54597471 -1.71640223 -1.68413214 -0.59433834" Properties=species:S:1:pos:R:3:forces:R:3 energy=-7.61350455 stress="7.087165579990968e-05 -5.8160254487717966e-05 2.8944998571283613e-07 -5.8160254487717966e-05 -4.210673724992605e-05 -2.316413778492704e-05 2.8944998571283613e-07 -2.316413778492704e-05 1.0922665936332206e-05" free_energy=-7.62040235 pbc="T T T"
P       -2.03670151      -0.50889036       2.15190312      -0.00019915      -0.00037729      -0.00007091
P        0.47160542      -0.28138402       4.58688271       0.00019915       0.00037729       0.00007091
2
Lattice="3.29915522 -1.22670241 4.27338708 -1.5994746 1.08428115 1.54601206 -1.71634935 -1.68428297 -0.59435951" Properties=species:S:1:pos:R:3:forces:R:3 energy=-7.61350698 stress="5.409266299037985e-06 -1.2981371547922666e-05 -7.82161581770099e-06 -1.2981371547922666e-05 -2.1653792440609308e-05 3.4278180874077076e-06 -7.82161581770099e-06 3.4278180874077076e-06 -1.098339582012705e-05" free_energy=-7.62040332 pbc="T T T"
P       -2.03664348      -0.50900619       2.15188019      -0.00005897      -0.00018223       0.00002530
P        0.47155130      -0.28119838       4.58687534       0.00005897       0.00018223      -0.00002530
