2
Lattice="3.094492 0.022213 2.028553 1.107152 2.889738 2.028553 0.032051 0.022213 3.699984" Properties=species:S:1:pos:R:3:forces:R:3 energy=-7.80519362 stress="-0.013712106377529286 -0.0006694576341180375 -0.0017698480387163067 -0.0006694576341180375 -0.013210111547771752 -0.0012265940311990853 -0.0017698480387163067 -0.0012265940311990853 -0.015988916195274944" free_energy=-7.80786938 pbc="T T T"
P        0.96432141       0.66832334       1.76685566       0.04146611       0.02873810       0.07597532
P        3.26937359       2.26584066       5.99023434      -0.04146611      -0.02873810      -0.07597532
2
Lattice="3.13082596 0.02604336 2.05849519 1.12349398 2.9224147 2.05849519 0.03757781 0.02604336 3.74674024" Properties=species:S:1:pos:R:3:forces:R:3 energy=-7.80912149 stress="0.006105936750665636 -0.0010807689473931936 -0.002857247759435038 -0.0010807689473931936 0.006916344313192465 -0.001980216599600503 -0.002857247759435038 -0.001980216599600503 0.0024302510593718434" free_energy=-7.81167483 pbc="T T T"
P        0.97960635       0.67891656       1.79486113      -0.09141804      -0.06335731      -0.16749859
P        3.31229140       2.29558486       6.06886949       0.09141804       0.06335731       0.16749859
2
Lattice="3.11771541 0.02466124 2.04769102 1.11759723 2.91062382 2.04769102 0.03558355 0.02466123 3.72986898" Properties=species:S:1:pos:R:3:forces:R:3 energy=-7.81045094 stress="-0.0007023176442545678 -0.00094951899824901 -0.002510256864185045 -0.00094951899824901 9.675244163942304e-06 -0.0017397345048064756 -0.002510256864185045 -0.0017397345048064756 -0.003931619971370388" free_energy=-7.81304591 pbc="T T T"
P        0.97409456       0.67509662       1.78476228      -0.04479120      -0.03104256      -0.08206765
P        3.29680163       2.28484967       6.04048874       0.04479120       0.03104256       0.08206765
2
Lattice="3.11991883 0.02489352 2.04950682 1.11858826 2.91260545 2.04950682 0.03591871 0.02489352 3.73270444" Properties=species:S:1:pos:R:3:forces:R:3 energy=-7.81043909 stress="0.0004681446291642206 -0.0009728323143435548 -0.0025718912175503395 -0.0009728323143435548 0.0011976184741991213 -0.0017824502011357774 -0.0025718912175503395 -0.0017824502011357774 -0.0028404466716832025" free_energy=-7.81302692 pbc="T T T"
P        0.97502097       0.67573867       1.78645969      -0.05272703      -0.03654249      -0.09660788
P        3.29940483       2.28665382       6.04525839       0.05272703       0.03654249       0.09660788
2
Lattice="3.12719841 0.03041496 2.06366184 1.12631384 2.91748335 2.06366183 0.04388557 0.03041495 3.74648435" Properties=species:S:1:pos:R:3:forces:R:3 energy=-7.81241417 stress="0.0005943289944678738 -0.0008898933372826807 -0.002352624299384609 -0.0008898933372826807 0.0012616113690329042 -0.0016304871798064377 -0.002352624299384609 -0.0016304871798064377 -0.0024321879182422784" free_energy=-7.81501599 pbc="T T T"
P        0.97809694       0.67787047       1.79209556      -0.03693787      -0.02559981      -0.06767857
P        3.31930088       2.30044279       6.08171246       0.03693787       0.02559981       0.06767857
2
Lattice="3.14903715 0.04697926 2.1061269 1.14949059 2.93211705 2.10612689 0.06778614 0.04697926 3.78782409" Properties=species:S:1:pos:R:3:forces:R:3 energy=-7.81580175 stress="0.000730558656770034 -0.0007586001906538368 -0.0020055227484193235 -0.0007586001906538368 0.0012993913860511127 -0.001389928320691671 -0.0020055227484193235 -0.001389928320691671 -0.0018494318987880717" free_energy=-7.81845072 pbc="T T T"
P        0.98722112       0.68419399       1.80881313       0.01475572       0.01022646       0.02703584
P        3.37909276       2.34188158       6.19126475      -0.01475572      -0.01022646      -0.02703584
2
Lattice="3.15541609 0.05181758 2.11853064 1.15626035 2.93639145 2.11853064 0.07476733 0.05181757 3.79989914" Properties=species:S:1:pos:R:3:forces:R:3 energy=-7.8160958 stress="0.0007230570056761622 -0.0007497673567351059 -0.0019821712592549647 -0.0007497673567351059 0.0012852664826502006 -0.0013737445618829493 -0.0019821712592549647 -0.0013737445618829493 -0.0018268931851835946" free_energy=-7.81876322 pbc="T T T"
P        0.98987754       0.68603502       1.81368028       0.03067819       0.02126153       0.05620941
P        3.39656623       2.35399158       6.22328014      -0.03067819      -0.02126153      -0.05620941
2
Lattice="3.16467716 0.06397397 2.14534321 1.17089422 2.94079545 2.1453432 0.09230775 0.06397396 3.82219298" Properties=species:S:1:pos:R:3:forces:R:3 energy=-7.81672082 stress="0.0012518557279899115 -0.00019256477469128727 -0.0005090869192640763 -0.00019256477469128727 0.001396249109466471 -0.00035282288023759937 -0.0005090869192640763 -0.00035282288023759937 0.0005969445550406574" free_energy=-7.81968615 pbc="T T T"
P        0.99981582       0.69292275       1.83188946      -0.00792576      -0.00549295      -0.01452180
P        3.42806331       2.37582063       6.28098993       0.00792576       0.00549295       0.01452180
2
Lattice="3.16570264 0.06532005 2.14831217 1.17251463 2.94128311 2.14831216 0.09425 0.06532004 3.82466158" Properties=species:S:1:pos:R:3:forces:R:3 energy=-7.81670275 stress="0.0013211231786312682 -0.00013811323116767827 -0.00036513261547150395 -0.00013811323116767827 0.0014246862863722546 -0.00025305529036964464 -0.00036513261547150395 -0.00025305529036964464 0.000851401020518499" free_energy=-7.81970214 pbc="T T T"
P        1.00091636       0.69368548       1.83390590      -0.01214916      -0.00841998      -0.02226001
P        3.43155091       2.37823772       6.28738001       0.01214916       0.00841998       0.02226001
2
Lattice="3.16373342 0.07026517 2.15552945 1.1764537 2.93770319 2.15552943 0.10138531 0.07026517 3.82690974" Properties=species:S:1:pos:R:3:forces:R:3 energy=-7.81682106 stress="-0.0021584886741595377 0.00011168867881160884 0.00029527405022536206 0.00011168867881160884 -0.0022422371437464932 0.0002046397854914948 0.00029527405022536206 0.0002046397854914948 -0.0017786356466599118" free_energy=-7.81994865 pbc="T T T"
P        1.00214626       0.69453786       1.83615936       0.00813278       0.00563643       0.01490110
P        3.43942617       2.38369567       6.30180926      -0.00813278      -0.00563643      -0.01490110
2
Lattice="3.16413109 0.06926654 2.15407197 1.17565823 2.93842613 2.15407195 0.09994439 0.06926654 3.82645574" Properties=species:S:1:pos:R:3:forces:R:3 energy=-7.81686005 stress="-0.0014503972345069436 6.209581310100715e-05 0.00016416431658369137 6.209581310100715e-05 -0.0014969589737256514 0.00011377413553131284 0.00016416431658369137 0.00011377413553131284 -0.0012392093382367748" free_energy=-7.81996278 pbc="T T T"
P        1.00189779       0.69436566       1.83570411       0.00398680       0.00276305       0.00730472
P        3.43783592       2.38259355       6.29889555      -0.00398680      -0.00276305      -0.00730472
2
Lattice="3.16479224 0.06760624 2.15164881 1.17433571 2.93962806 2.1516488 0.09754875 0.06760624 3.82570093" Properties=species:S:1:pos:R:3:forces:R:3 energy=-7.8168545 stress="-0.0002796618201657883 -2.1291791152817202e-05 -5.62892747461067e-05 -2.1291791152817202e-05 -0.00026369615841045235 -3.9011304489508134e-05 -5.62892747461067e-05 -3.9011304489508134e-05 -0.00035207478543678925" free_energy=-7.81991466 pbc="T T T"
P        1.00148455       0.69407927       1.83494697      -0.00284714      -0.00197321      -0.00521660
P        3.43519215       2.38076127       6.29405157       0.00284714       0.00197321       0.00521660
2
Lattice="3.16586801 0.06831632 2.15355898 1.17537825 2.94038608 2.15355897 0.09857332 0.06831632 3.82763905" Properties=species:S:1:pos:R:3:forces:R:3 energy=-7.81688699 stress="-0.0002201241145460609 -3.314109650001454e-05 -8.761549643004252e-05 -3.314109650001454e-05 -0.00019527332750853734 -6.072195707825423e-05 -8.761549643004252e-05 -6.072195707825423e-05 -0.00033283647575242415" free_energy=-7.81995011 pbc="T T T"
P        1.00190190       0.69436851       1.83571164      -0.00060042      -0.00041612      -0.00110011
P        3.43791768       2.38265021       6.29904536       0.00060042       0.00041612       0.00110011
2
Lattice="3.16787918 0.06964383 2.1571301 1.17732731 2.94180321 2.15713009 0.10048877 0.06964383 3.83126241" Properties=species:S:1:pos:R:3:forces:R:3 energy=-7.81693102 stress="-0.00011067830331431086 -5.596432929799497e-05 -0.00014795365687063708 -5.596432929799497e-05 -6.871366026114466e-05 -0.00010253934420661346 -0.00014795365687063708 -0.00010253934420661346 -0.0003010122565383523" free_energy=-7.81999952 pbc="T T T"
P        1.00268144       0.69490877       1.83713995       0.00362711       0.00251377       0.00664569
P        3.44301382       2.38618210       6.30838265      -0.00362711      -0.00251377      -0.00664569
2
Lattice="3.1695265 0.07068439 2.1599749 1.17887995 2.94298038 2.15997488 0.1019902 0.07068439 3.83418683" Properties=species:S:1:pos:R:3:forces:R:3 energy=-7.81690429 stress="0.0003393956527267784 -4.300357969622421e-05 -0.00011368935711285597 -4.300357969622421e-05 0.0003716415670219222 -7.879244919762094e-05 -0.00011368935711285597 -7.879244919762094e-05 0.00019314080981002417" free_energy=-7.81998998 pbc="T T T"
P        1.00374010       0.69564247       1.83907965      -0.00110617      -0.00076663      -0.00202675
P        3.44665655       2.38870669       6.31505696       0.00110617       0.00076663       0.00202675
2
Lattice="3.16912237 0.07042911 2.15927698 1.17849904 2.94269159 2.15927697 0.10162186 0.07042911 3.83346938" Properties=species:S:1:pos:R:3:forces:R:3 energy=-7.81691271 stress="0.00022905125142617488 -4.6167544226844336e-05 -0.00012205392805092667 -4.6167544226844336e-05 0.00026366970065326773 -8.458951918317743e-05 -0.00012205392805092667 -8.458951918317743e-05 7.203585328961506e-05" free_energy=-7.81999419 pbc="T T T"
P        1.00348037       0.69546247       1.83860375       0.00005532       0.00003834       0.00010136
P        3.44576290       2.38808734       6.31341958      -0.00005532      -0.00003834      -0.00010136
2
Lattice="3.16934296 0.07121482 2.16076685 1.17931219 2.94262231 2.16076684 0.10275556 0.07121482 3.83446089" Properties=species:S:1:pos:R:3:forces:R:3 energy=-7.81691235 stress="5.359976477319972e-05 -1.0762302842360887e-05 -2.8452474844651034e-05 -1.0762302842360887e-05 6.166980513712912e-05 -1.9718999509695008e-05 -2.8452474844651034e-05 -1.9718999509695008e-05 1.6997277108189344e-05" free_energy=-7.82001436 pbc="T T T"
P        1.00397193       0.69580314       1.83950440      -0.00068649      -0.00047577      -0.00125781
P        3.44743878       2.38924881       6.31649018       0.00068649       0.00047577       0.00125781
2
Lattice="3.16934617 0.07122624 2.1607885 1.17932401 2.9426213 2.16078849 0.10277203 0.07122624 3.8344753" Properties=species:S:1:pos:R:3:forces:R:3 energy=-7.81691228 stress="5.1091320980034614e-05 -1.0159235747599794e-05 -2.6858149995044542e-05 -1.0159235747599794e-05 5.870916400779377e-05 -1.8614052666121642e-05 -2.6858149995044542e-05 -1.8614052666121642e-05 1.6539849387371614e-05" free_energy=-7.82001458 pbc="T T T"
P        1.00397908       0.69580810       1.83951750      -0.00069758      -0.00048346      -0.00127813
P        3.44746313       2.38926568       6.31653479       0.00069758       0.00048346       0.00127813
2
Lattice="3.16935258 0.07124908 2.16083181 1.17934764 2.94261929 2.16083179 0.10280498 0.07124908 3.83450412" Properties=species:S:1:pos:R:3:forces:R:3 energy=-7.81691227 stress="4.6139707096142895e-05 -9.05789649630119e-06 -2.3946510953856507e-05 -9.05789649630119e-06 5.2931717326929056e-05 -1.6596141558177955e-05 -2.3946510953856507e-05 -1.6596141558177955e-05 1.5333889960104953e-05" free_energy=-7.82001516 pbc="T T T"
P        1.00399337       0.69581801       1.83954370      -0.00071954      -0.00049868      -0.00131837
P        3.44751183       2.38929944       6.31662402       0.00071954       0.00049868       0.00131837
2
Lattice="3.1693654 0.07129475 2.16091841 1.17939491 2.94261526 2.1609184 0.10287088 0.07129475 3.83456175" Properties=species:S:1:pos:R:3:forces:R:3 energy=-7.81691191 stress="3.553059585376769e-05 -7.087489514314601e-06 -1.8737322471357834e-05 -7.087489514314601e-06 4.0845103561256514e-05 -1.2985909125057183e-05 -1.8737322471357834e-05 -1.2985909125057183e-05 1.1426106062425949e-05" free_energy=-7.82001598 pbc="T T T"
P        1.00402192       0.69583779       1.83959601      -0.00076298      -0.00052878      -0.00139795
P        3.44760927       2.38936697       6.31680255       0.00076298       0.00052878       0.00139795
2
Lattice="3.16939105 0.0713861 2.16109162 1.17948944 2.94260721 2.16109161 0.10300269 0.0713861 3.83467703" Properties=species:S:1:pos:R:3:forces:R:3 energy=-7.81691198 stress="1.6696810858869324e-05 -2.6355396434954646e-06 -6.96762757306114e-06 -2.6355396434954646e-06 1.8673053651888615e-05 -4.828918297495108e-06 -6.96762757306114e-06 -4.828918297495108e-06 7.733354637151875e-06" free_energy=-7.8200184 pbc="T T T"
P        1.00407907       0.69587740       1.83970071      -0.00085050      -0.00058944      -0.00155831
P        3.44780411       2.38950201       6.31715955       0.00085050       0.00058944       0.00155831
2
Lattice="3.16944234 0.07156879 2.16143805 1.17967852 2.9425911 2.16143803 0.1032663 0.07156879 3.83490757" Properties=species:S:1:pos:R:3:forces:R:3 energy=-7.81691039 stress="-2.5982247811863718e-05 5.283356335441541e-06 1.3967704752067744e-05 5.283356335441541e-06 -2.9943939623862974e-05 9.680318510861648e-06 1.3967704752067744e-05 9.680318510861648e-06 -8.013598396904034e-06" free_energy=-7.82002152 pbc="T T T"
P        1.00419340       0.69595664       1.83991020      -0.00102233      -0.00070853      -0.00187314
P        3.44819376       2.38977204       6.31787345       0.00102233       0.00070853       0.00187314
2
Lattice="3.16940746 0.07144456 2.16120247 1.17954994 2.94260206 2.16120246 0.10308704 0.07144456 3.8347508" Properties=species:S:1:pos:R:3:forces:R:3 energy=-7.81691133 stress="2.4769241720793932e-06 -5.843862579473236e-07 -1.544948270911631e-06 -5.843862579473236e-07 2.9151218032802792e-06 -1.070724649036147e-06 -1.544948270911631e-06 -1.070724649036147e-06 4.894341796152616e-07" free_energy=-7.82001927 pbc="T T T"
P        1.00411566       0.69590276       1.83976776      -0.00090215      -0.00062524      -0.00165294
P        3.44792878       2.38958842       6.31738797       0.00090215       0.00062524       0.00165294
2
Lattice="3.16941848 0.07150631 2.1613155 1.17961163 2.9425907 2.16131549 0.10317614 0.07150631 3.83482121" Properties=species:S:1:pos:R:3:forces:R:3 energy=-7.81691912 stress="-6.090394700134674e-05 -2.153439237103116e-06 -5.69304899446452e-06 -2.153439237103116e-06 -5.9289174967843844e-05 -3.945569993927102e-06 -5.69304899446452e-06 -3.945569993927102e-06 -6.822774005116727e-05" free_energy=-7.82002683 pbc="T T T"
P        1.00409276       0.69588689       1.83972580       0.00015674       0.00010863       0.00028718
P        3.44811349       2.38971643       6.31772640      -0.00015674      -0.00010863      -0.00028718
2
Lattice="3.16941846 0.07150617 2.16131525 1.1796115 2.94259072 2.16131524 0.10317594 0.07150617 3.83482106" Properties=species:S:1:pos:R:3:forces:R:3 energy=-7.8169191 stress="-6.080481935340946e-05 -2.174391983238706e-06 -5.748442387956733e-06 -2.174391983238706e-06 -5.9174343682945845e-05 -3.98396151656041e-06 -5.748442387956733e-06 -3.98396151656041e-06 -6.81998717129202e-05" free_energy=-7.82002681 pbc="T T T"
P        1.00409282       0.69588692       1.83972590       0.00015291       0.00010598       0.00028017
P        3.44811308       2.38971614       6.31772565      -0.00015291      -0.00010598      -0.00028017
2
Lattice="3.16941673 0.07149649 2.16129754 1.17960183 2.9425925 2.16129753 0.10316198 0.07149649 3.83481002" Properties=species:S:1:pos:R:3:forces:R:3 energy=-7.81691788 stress="-5.097190218592909e-05 -1.9425199192121428e-06 -5.1354512936854864e-06 -1.9425199192121428e-06 -4.9515296235185216e-05 -3.5591269563980397e-06 -5.1354512936854864e-06 -3.5591269563980397e-06 -5.757837107493012e-05" free_energy=-7.82002562 pbc="T T T"
P        1.00409640       0.69588941       1.83973247      -0.00001355      -0.00000939      -0.00002482
P        3.44808414       2.38969607       6.31767262       0.00001355       0.00000939       0.00002482
