2
Lattice="20.0 0.0 0.0 0.0 20.0 0.0 0.0 0.0 21.932288" Properties=species:S:1:pos:R:3:forces:R:3 energy=-5.86391836 stress="7.514527327198408e-07 -0.0 0.0 -0.0 7.514527327198408e-07 -0.0 0.0 -0.0 0.00021068691529867067" free_energy=-5.86391836 pbc="T T T"
P       10.00000000      10.00000000      11.93228322       0.00000000      -0.00000000      -0.95404982
P       10.00000000      10.00000000      10.00000478      -0.00000000       0.00000000       0.95404982
2
Lattice="20.0 0.0 0.0 0.0 20.0 0.0 0.0 0.0 21.932288" Properties=species:S:1:pos:R:3:forces:R:3 energy=-5.81671175 stress="8.465109167070428e-07 -0.0 0.0 -0.0 8.465109167070428e-07 -0.0 0.0 -0.0 -0.0005048899600070859" free_energy=-5.81671175 pbc="T T T"
P       10.00000000      10.00000000      11.88625722       0.00000000      -0.00000000       2.40897883
P       10.00000000      10.00000000      10.04603078      -0.00000000       0.00000000      -2.40897883
2
Lattice="20.0 0.0 0.0 0.0 20.0 0.0 0.0 0.0 21.932288" Properties=species:S:1:pos:R:3:forces:R:3 energy=-5.88143198 stress="7.902499534463311e-07 -0.0 -0.0 -0.0 7.902499534463311e-07 0.0 -0.0 0.0 -2.932528123930543e-05" free_energy=-5.88143198 pbc="T T T"
P       10.00000000      10.00000000      11.91510300       0.00000000      -0.00000000       0.14065466
P       10.00000000      10.00000000      10.01718500      -0.00000000       0.00000000      -0.14065466
2
Lattice="20.0 0.0 0.0 0.0 20.0 0.0 0.0 0.0 21.932288" Properties=species:S:1:pos:R:3:forces:R:3 energy=-5.88131317 stress="7.84320519776742e-07 -0.0 0.0 -0.0 7.84320519776742e-07 -0.0 0.0 -0.0 3.2109943018836496e-06" free_energy=-5.88131317 pbc="T T T"
P       10.00000000      10.00000000      11.91731048       0.00000000       0.00000000      -0.00995286
P       10.00000000      10.00000000      10.01497752      -0.00000000      -0.00000000       0.00995286
2
Lattice="20.0 0.0 0.0 0.0 20.0 0.0 0.0 0.0 21.932288" Properties=species:S:1:pos:R:3:forces:R:3 energy=-5.88134431 stress="7.840895839390843e-07 -0.0 0.0 -0.0 7.840895839390843e-07 -0.0 0.0 -0.0 1.0772595090909468e-06" free_energy=-5.88134431 pbc="T T T"
P       10.00000000      10.00000000      11.91716463       0.00000000      -0.00000000      -0.00008219
P       10.00000000      10.00000000      10.01512337      -0.00000000       0.00000000       0.00008219
