2
Lattice="20.0 0.0 0.0 0.0 20.0 0.0 0.0 0.0 21.932288" Properties=species:S:1:pos:R:3:forces:R:3 energy=-5.88150763 stress="1.0581230421109889e-07 -0.0 -0.0 -0.0 1.0581230421109889e-07 -0.0 -0.0 -0.0 7.440939934604244e-07" free_energy=-5.88150763 pbc="T T T"
P       10.00000000      10.00000000      11.91717187       0.00000000       0.00000000      -0.00047328
P       10.00000000      10.00000000      10.01511613      -0.00000000      -0.00000000       0.00047328
2
Lattice="20.3 0.0 0.0 0.0 20.0 0.0 0.0 0.0 21.932288" Properties=species:S:1:pos:R:3:forces:R:3 energy=-5.88149168 stress="1.2749530691441732e-07 -0.0 -0.0 -0.0 9.399712743580187e-08 -0.0 -0.0 -0.0 7.230413831788202e-07" free_energy=-5.88149168 pbc="T T T"
P       10.15000000      10.00000000      11.91717187       0.00000000      -0.00000000      -0.00061013
P       10.15000000      10.00000000      10.01511613       0.00000000       0.00000000       0.00061013
2
Lattice="19.7 0.0 0.0 0.0 20.0 0.0 0.0 0.0 21.932288" Properties=species:S:1:pos:R:3:forces:R:3 energy=-5.8815197 stress="1.1122369262323965e-07 -0.0 -0.0 -0.0 1.2370671087500617e-07 -0.0 -0.0 -0.0 7.446307632452504e-07" free_energy=-5.8815197 pbc="T T T"
P        9.85000000      10.00000000      11.91717187       0.00000000       0.00000000      -0.00057979
P        9.85000000      10.00000000      10.01511613       0.00000000      -0.00000000       0.00057979
2
Lattice="20.0 0.0 0.0 0.0 20.3 0.0 0.0 0.0 21.932288" Properties=species:S:1:pos:R:3:forces:R:3 energy=-5.88149124 stress="9.410947460006776e-08 0.0 -0.0 0.0 1.2767631067906793e-07 -0.0 -0.0 -0.0 7.228291718685402e-07" free_energy=-5.88149124 pbc="T T T"
P       10.00000000      10.15000000      11.91717187      -0.00000000       0.00000000      -0.00061996
P       10.00000000      10.15000000      10.01511613       0.00000000      -0.00000000       0.00061996
2
Lattice="20.0 0.0 0.0 0.0 19.7 0.0 0.0 0.0 21.932288" Properties=species:S:1:pos:R:3:forces:R:3 energy=-5.88151949 stress="1.216095638087094e-07 -0.0 -0.0 -0.0 1.0996914928893713e-07 -0.0 -0.0 -0.0 7.436071557486056e-07" free_energy=-5.88151949 pbc="T T T"
P       10.00000000       9.85000000      11.91717187       0.00000000       0.00000000      -0.00061542
P       10.00000000       9.85000000      10.01511613       0.00000000       0.00000000       0.00061542
2
Lattice="20.0 0.0 0.0 0.0 20.0 0.0 0.0 0.0 22.26127232" Properties=species:S:1:pos:R:3:forces:R:3 energy=-5.86573918 stress="8.902264466247292e-08 0.0 -0.0 0.0 8.902264466247292e-08 -0.0 -0.0 -0.0 0.00019617362775089123" free_energy=-5.86573918 pbc="T T T"
P       10.00000000      10.00000000      12.09592945       0.00000000       0.00000000      -0.90215733
P       10.00000000      10.00000000      10.16534287      -0.00000000      -0.00000000       0.90215733
2
Lattice="20.0 0.0 0.0 0.0 20.0 0.0 0.0 0.0 21.60330368" Properties=species:S:1:pos:R:3:forces:R:3 energy=-5.87004304 stress="9.291110484789819e-08 0.0 -0.0 0.0 9.291110484789819e-08 0.0 -0.0 0.0 -0.00022243692447718435" free_energy=-5.87004304 pbc="T T T"
P       10.00000000      10.00000000      11.73841429       0.00000000      -0.00000000       1.02859072
P       10.00000000      10.00000000       9.86488939       0.00000000       0.00000000      -1.02859072
2
Lattice="20.0 0.3 0.0 0.0 20.0 0.0 0.0 0.0 21.932288" Properties=species:S:1:pos:R:3:forces:R:3 energy=-5.88149922 stress="1.0198001760780656e-07 1.1242206237540925e-07 -0.0 1.1242206237540925e-07 1.0523184386239174e-07 -0.0 -0.0 -0.0 7.389385069224449e-07" free_energy=-5.88149922 pbc="T T T"
P       10.00000000      10.15000000      11.91717187       0.00000000       0.00000000      -0.00055107
P       10.00000000      10.15000000      10.01511613       0.00000000      -0.00000000       0.00055107
2
Lattice="20.0 -0.3 0.0 0.0 20.0 0.0 0.0 0.0 21.932288" Properties=species:S:1:pos:R:3:forces:R:3 energy=-5.88149986 stress="1.0494473444260111e-07 -1.1448176038695073e-07 -0.0 -1.1448176038695073e-07 1.085648097356134e-07 -0.0 -0.0 -0.0 7.43526016129969e-07" free_energy=-5.88149986 pbc="T T T"
P       10.00000000       9.85000000      11.91717187       0.00000000       0.00000000      -0.00045641
P       10.00000000       9.85000000      10.01511613      -0.00000000      -0.00000000       0.00045641
2
Lattice="20.0 0.0 0.0 0.0 20.0 0.3 0.0 0.0 21.932288" Properties=species:S:1:pos:R:3:forces:R:3 energy=-5.88150047 stress="9.899033473650848e-08 -0.0 -0.0 -0.0 9.973931583161447e-08 9.063295401695079e-08 -0.0 9.063295401695079e-08 7.388573673038083e-07" free_energy=-5.88150047 pbc="T T T"
P       10.00000000      10.00000000      12.06717187       0.00000000       0.00015918      -0.00066059
P       10.00000000      10.00000000      10.16511613       0.00000000      -0.00015918       0.00066059
2
Lattice="20.0 0.0 0.0 0.0 20.0 -0.3 0.0 0.0 21.932288" Properties=species:S:1:pos:R:3:forces:R:3 energy=-5.88150067 stress="9.894040266350141e-08 -0.0 -0.0 -0.0 9.970810828598506e-08 -9.070785212646138e-08 -0.0 -9.070785212646138e-08 7.388261597581789e-07" free_energy=-5.88150067 pbc="T T T"
P       10.00000000      10.00000000      11.76717187       0.00000000      -0.00015844      -0.00065560
P       10.00000000      10.00000000       9.86511613      -0.00000000       0.00015844       0.00065560
2
Lattice="20.0 0.0 0.0 0.0 20.0 0.0 0.32898432 0.0 21.932288" Properties=species:S:1:pos:R:3:forces:R:3 energy=-5.88147822 stress="1.036028099805362e-07 -0.0 1.2271431092399074e-07 -0.0 9.937730830231324e-08 -0.0 1.2271431092399074e-07 -0.0 2.3012568977314093e-06" free_energy=-5.88147822 pbc="T T T"
P       10.17875758      10.00000000      11.91717187       0.00003784       0.00000000      -0.00790404
P       10.15022674      10.00000000      10.01511613      -0.00003784      -0.00000000       0.00790404
2
Lattice="20.0 0.0 0.0 0.0 20.0 0.0 -0.32898432 0.0 21.932288" Properties=species:S:1:pos:R:3:forces:R:3 energy=-5.88148038 stress="1.0715422867316379e-07 -0.0 -1.2586627303256178e-07 -0.0 1.0251678739263253e-07 -0.0 -1.2586627303256178e-07 -0.0 2.308646844536455e-06" free_energy=-5.88148038 pbc="T T T"
P        9.82124242      10.00000000      11.91717187      -0.00003359       0.00000000      -0.00780923
P        9.84977326      10.00000000      10.01511613       0.00003359      -0.00000000       0.00780923
2
Lattice="20.0 0.0 0.0 0.0 20.0 0.0 0.0 0.0 21.932288" Properties=species:S:1:pos:R:3:forces:R:3 energy=-5.88148991 stress="1.1740278665786409e-07 -0.0 -1.2483018251766517e-08 -0.0 1.0598082495749773e-07 -0.0 -1.2483018251766517e-08 -0.0 1.171837096875456e-06" free_energy=-5.88148991 pbc="T T T"
P       10.01500000      10.00000000      11.91717187      -0.00074704       0.00000000      -0.00263673
P       10.00000000      10.00000000      10.01511613       0.00074704       0.00000000       0.00263673
2
Lattice="20.0 0.0 0.0 0.0 20.0 0.0 0.0 0.0 21.932288" Properties=species:S:1:pos:R:3:forces:R:3 energy=-5.88149423 stress="1.1984945823521033e-07 -0.0 1.0666739096134489e-08 -0.0 1.0772844751274503e-07 -0.0 1.0666739096134489e-08 -0.0 1.179152145570991e-06" free_energy=-5.88149423 pbc="T T T"
P        9.98500000      10.00000000      11.91717187       0.00079415       0.00000000      -0.00245873
P       10.00000000      10.00000000      10.01511613      -0.00079415       0.00000000       0.00245873
2
Lattice="20.0 0.0 0.0 0.0 20.0 0.0 0.0 0.0 21.932288" Properties=species:S:1:pos:R:3:forces:R:3 energy=-5.87642135 stress="9.912140642815203e-08 -0.0 -0.0 -0.0 9.912140642815203e-08 -0.0 -0.0 -0.0 0.00010760033429642716" free_energy=-5.87642135 pbc="T T T"
P       10.00000000      10.00000000      11.93217180      -0.00000000       0.00000000      -0.49006527
P       10.00000000      10.00000000      10.01511613       0.00000000       0.00000000       0.49006527
2
Lattice="20.0 0.0 0.0 0.0 20.0 0.0 0.0 0.0 21.932288" Properties=species:S:1:pos:R:3:forces:R:3 energy=-5.87907449 stress="9.576971602755272e-08 -0.0 -0.0 -0.0 9.576971602755272e-08 -0.0 -0.0 -0.0 -0.00011204810859764109" free_energy=-5.87907449 pbc="T T T"
P       10.00000000      10.00000000      11.90217194       0.00000000       0.00000000       0.52205130
P       10.00000000      10.00000000      10.01511613       0.00000000      -0.00000000      -0.52205130
