2
Lattice="3.451446 0.0 1.385316 1.455721 2.957677 1.365355 0.601768 0.410422 3.492936" Properties=species:S:1:pos:R:3:forces:R:3 energy=-7.77668547 stress="-0.017463978962587046 0.0020885670946372606 0.0009353843580938615 0.0020885670946372606 -0.018610877635395342 -0.005203563821719699 0.0009353843580938615 -0.005203563821719699 -0.01941900505604981" free_energy=-7.77852562 pbc="T T T"
P        1.50570077       1.04723575       3.23816629      -0.00706078      -0.00000000      -0.00283400
P        4.00323423       2.32086325       3.00544071       0.00706078       0.00000000       0.00283400
2
Lattice="3.49709232 0.0 1.40363718 1.4696271 3.00342325 1.39673202 0.60670939 0.42942746 3.54664813" Properties=species:S:1:pos:R:3:forces:R:3 energy=-7.78527937 stress="0.002002628841505562 0.0011304726186153072 -0.0020968990474486394 0.0011304726186153072 0.007867567224708313 -0.0028165150217625747 -0.0020968990474486394 -0.0028165150217625747 0.006385309938483407" free_energy=-7.78708073 pbc="T T T"
P        1.52166952       1.07292641       3.28982118      -0.22774735      -0.00000000      -0.09141156
P        4.05175929       2.35992430       3.05719615       0.22774735       0.00000000       0.09141156
2
Lattice="3.48542875 0.0 1.39895575 1.46607381 2.99173415 1.38871455 0.60544676 0.42457118 3.53292359" Properties=species:S:1:pos:R:3:forces:R:3 energy=-7.78626644 stress="-0.002638489936202669 0.001359600016452818 -0.0013739726141433909 0.001359600016452818 0.0015551583063020066 -0.003387375523736016 -0.0013739726141433909 -0.003387375523736016 0.00023321891303932827" free_energy=-7.78808134 pbc="T T T"
P        1.51758889       1.06636192       3.27662219      -0.17372726      -0.00000000      -0.06972937
P        4.03936043       2.34994341       3.04397170       0.17372726       0.00000000       0.06972937
2
Lattice="3.48743438 0.0 1.39976075 1.46668482 2.99374417 1.3900932 0.60566388 0.42540625 3.53528361" Properties=species:S:1:pos:R:3:forces:R:3 energy=-7.78624692 stress="-0.0018250447310484185 0.0013195109718580162 -0.0015009780562140632 0.0013195109718580162 0.0026623130337965796 -0.0032874954930811585 -0.0015009780562140632 -0.0032874954930811585 0.0013121153265551386" free_energy=-7.78805976 pbc="T T T"
P        1.51829056       1.06749073       3.27889183      -0.18312413      -0.00000000      -0.07350102
P        4.04149252       2.35165969       3.04624573       0.18312413       0.00000000       0.07350102
2
Lattice="3.50186512 0.0 1.40555285 1.46971476 2.99763427 1.40341705 0.61099894 0.43617228 3.54286436" Properties=species:S:1:pos:R:3:forces:R:3 energy=-7.79018328 stress="-0.004947727982725037 7.788990825349086e-05 -0.003086299335419687 7.788990825349086e-05 0.0027857715385781767 -0.0001940584052741659 -0.003086299335419687 -0.0001940584052741659 0.001502877235093905" free_energy=-7.79190054 pbc="T T T"
P        1.51738055       1.07653778       3.28563305      -0.07705179      -0.00000000      -0.03092648
P        4.06519827       2.35726877       3.06620121       0.07705179       0.00000000       0.03092648
2
Lattice="3.50780719 0.0 1.40793784 1.47096238 2.99923607 1.40890334 0.61319573 0.44060536 3.54598586" Properties=species:S:1:pos:R:3:forces:R:3 energy=-7.79108909 stress="-0.006320461950657869 -0.0004370154331988615 -0.003762633477319057 -0.0004370154331988615 0.002806301590991235 0.0010888026309664649 -0.003762633477319057 0.0010888026309664649 0.0015437343785262656" free_energy=-7.79277664 pbc="T T T"
P        1.51699990       1.08026304       3.28840648      -0.03050977      -0.00000000      -0.01224579
P        4.07496540       2.35957839       3.07442056       0.03050977       0.00000000       0.01224579
2
Lattice="3.51969134 0.0 1.41270782 1.47345763 3.00243969 1.41987593 0.61758931 0.44947151 3.55222884" Properties=species:S:1:pos:R:3:forces:R:3 energy=-7.79159656 stress="-0.009211354758522763 -0.0014671816574294131 -0.00514200475967899 -0.0014671816574294131 0.0027682646110423134 0.0036554104796983444 -0.00514200475967899 0.0036554104796983444 0.0015358351557840932" free_energy=-7.79323525 pbc="T T T"
P        1.51621481       1.08771356       3.29394377       0.06765454       0.00000000       0.02715468
P        4.09452347       2.36419765       3.09086882      -0.06765454      -0.00000000      -0.02715468
2
Lattice="3.51482717 0.0 1.41075547 1.47243633 3.00112845 1.41538486 0.61579102 0.44584261 3.54967359" Properties=species:S:1:pos:R:3:forces:R:3 energy=-7.79159942 stress="-0.008010832272406605 -0.0010455985490310808 -0.004575797951875844 -0.0010455985490310808 0.002797015548611855 0.002605057161498184 -0.004575797951875844 0.002605057161498184 0.001552941234879365" free_energy=-7.79325678 pbc="T T T"
P        1.51653218       1.08466407       3.29167577       0.02686954       0.00000000       0.01078470
P        4.08652234       2.36230699       3.08413815      -0.02686954      -0.00000000      -0.01078470
2
Lattice="3.55124857 0.0 1.42537402 1.49060255 2.99621483 1.42280495 0.63581721 0.44647709 3.55245967" Properties=species:S:1:pos:R:3:forces:R:3 energy=-7.7942865 stress="-0.003725185633416528 -0.0001754372747366955 -0.0022067476107812648 -0.0001754372747366955 0.0016733982540959073 0.00043709350199500806 -0.0022067476107812648 0.00043709350199500806 0.0008870883032173627" free_energy=-7.79590977 pbc="T T T"
P        1.53807635       1.08391152       3.29641626       0.01975387       0.00000000       0.00792866
P        4.13959198       2.35878040       3.10422238      -0.01975387      -0.00000000      -0.00792866
2
Lattice="3.56790082 0.0 1.43205778 1.49890834 2.99396827 1.4261975 0.6449734 0.44676718 3.55373349" Properties=species:S:1:pos:R:3:forces:R:3 energy=-7.79495632 stress="-0.0019736266769521944 0.00021032979487101502 -0.0012252116243088298 0.00021032979487101502 0.0011981174329216628 -0.0005240260337719691 -0.0012252116243088298 -0.0005240260337719691 0.0005871606462028334" free_energy=-7.79654851 pbc="T T T"
P        1.54791568       1.08356745       3.29857929       0.01625312       0.00000000       0.00652356
P        4.16386688       2.35716800       3.11340948      -0.01625312      -0.00000000      -0.00652356
2
Lattice="3.60120532 0.0 1.4454253 1.51551992 2.98947515 1.43298259 0.66328577 0.44734736 3.55628113" Properties=species:S:1:pos:R:3:forces:R:3 energy=-7.79536683 stress="0.0011746457447745576 0.0009684000626755371 0.0005611516285583288 0.0009684000626755371 0.0003253415217978445 -0.00241272049524092 0.0005611516285583288 -0.00241272049524092 1.7948146057481155e-06" free_energy=-7.79688094 pbc="T T T"
P        1.56755101       1.08287931       3.30288796       0.00956861       0.00000000       0.00384058
P        4.21246000       2.35394320       3.13180106      -0.00956861      -0.00000000      -0.00384058
2
Lattice="3.58833566 0.0 1.44025977 1.50910081 2.9912114 1.43036067 0.65620943 0.44712316 3.55529666" Properties=species:S:1:pos:R:3:forces:R:3 energy=-7.79534894 stress="-1.6215440709044706e-07 0.0006769574314836988 -0.00010618473506064032 0.0006769574314836988 0.0006480128947840905 -0.001686605636930787 -0.00010618473506064032 -0.001686605636930787 0.00022177187295529413" free_energy=-7.79689429 pbc="T T T"
P        1.55995706       1.08314522       3.30122042       0.01231820       0.00000000       0.00494419
P        4.19368884       2.35518934       3.12469668      -0.01231820      -0.00000000      -0.00494419
2
Lattice="3.5930251 0.0 1.44214198 1.50967245 2.99011579 1.4357193 0.6587739 0.45197194 3.55569027" Properties=species:S:1:pos:R:3:forces:R:3 energy=-7.7955264 stress="-9.598210210008826e-05 1.7784787039129416e-05 2.216950961515366e-05 1.7784787039129416e-05 -0.00014113792266366344 -4.430993379778071e-05 2.216950961515366e-05 -4.430993379778071e-05 -0.00014231809841673107" free_energy=-7.79707898 pbc="T T T"
P        1.56296113       1.08650790       3.30323169       0.00069398       0.00000000       0.00027855
P        4.19851032       2.35557983       3.13031986      -0.00069398      -0.00000000      -0.00027855
2
Lattice="3.59305008 0.0 1.44215201 1.5096755 2.99010995 1.43574784 0.65878756 0.45199777 3.55569237" Properties=species:S:1:pos:R:3:forces:R:3 energy=-7.79552688 stress="-9.65776544178618e-05 1.4002594788081433e-05 2.2654212730851506e-05 1.4002594788081433e-05 -0.00014508440391792292 -3.488679667045108e-05 2.2654212730851506e-05 -3.488679667045108e-05 -0.00014392672256374498" free_energy=-7.79707948 pbc="T T T"
P        1.56297712       1.08652581       3.30324241       0.00063539       0.00000000       0.00025503
P        4.19853602       2.35558190       3.13034981      -0.00063539      -0.00000000      -0.00025503
2
Lattice="3.59310004 0.0 1.44217206 1.50968158 2.99009828 1.43580493 0.65881488 0.45204942 3.55569656" Properties=species:S:1:pos:R:3:forces:R:3 energy=-7.79552757 stress="-9.76465128556693e-05 6.7829850085901346e-06 2.3944707157719124e-05 6.7829850085901346e-06 -0.00015345969776867189 -1.6899485143205006e-05 2.3944707157719124e-05 -1.6899485143205006e-05 -0.00014769280547973903" free_energy=-7.79708022 pbc="T T T"
P        1.56300914       1.08656164       3.30326384       0.00050973       0.00000000       0.00020459
P        4.19858736       2.35558607       3.13040971      -0.00050973      -0.00000000      -0.00020459
2
Lattice="3.59309035 0.0 1.44216817 1.5096804 2.99010054 1.43579387 0.65880959 0.45203941 3.55569575" Properties=species:S:1:pos:R:3:forces:R:3 energy=-7.79552736 stress="-9.780777472695476e-05 8.329050509635299e-06 2.3552322203502225e-05 8.329050509635299e-06 -0.00015176721894655175 -2.0751438741752986e-05 2.3552322203502225e-05 -2.0751438741752986e-05 -0.00014703395801791993" free_energy=-7.79708 pbc="T T T"
P        1.56300294       1.08655469       3.30325969       0.00053483       0.00000000       0.00021467
P        4.19857740       2.35558526       3.13039810      -0.00053483      -0.00000000      -0.00021467
2
Lattice="3.59343141 0.0 1.44230506 1.50976771 2.99051676 1.43606966 0.6588172 0.45221792 3.55617009" Properties=species:S:1:pos:R:3:forces:R:3 energy=-7.79551503 stress="6.56428377712101e-05 -1.1132355676925379e-07 -2.900435532307076e-06 -1.1132355676925379e-07 7.280601806669429e-05 2.77372665554252e-07 -2.900435532307076e-06 2.77372665554252e-07 7.17049721663246e-05" free_energy=-7.79706715 pbc="T T T"
P        1.56312511       1.08679263       3.30372237      -0.00194023      -0.00000000      -0.00077876
P        4.19889121       2.35594205       3.13082244       0.00194023       0.00000000       0.00077876
2
Lattice="3.59330866 0.0 1.44225579 1.50973629 2.99036696 1.4359704 0.65881446 0.45215367 3.55599937" Properties=species:S:1:pos:R:3:forces:R:3 energy=-7.79551986 stress="6.951231128587444e-06 2.9506359902065554e-06 6.697314054328261e-06 2.9506359902065554e-06 -8.062719073724733e-06 -7.3513617956295674e-06 6.697314054328261e-06 -7.3513617956295674e-06 -7.046682527649576e-06" free_energy=-7.79707217 pbc="T T T"
P        1.56308112       1.08670699       3.30355584      -0.00104994      -0.00000000      -0.00042142
P        4.19877829       2.35581364       3.13066972       0.00104994       0.00000000       0.00042142
2
Lattice="3.5933059 0.0 1.44225469 1.50971864 2.99042478 1.43601038 0.65878995 0.45219104 3.55605643" Properties=species:S:1:pos:R:3:forces:R:3 energy=-7.79552135 stress="-2.3843432430642545e-05 -2.0573012720371358e-06 -1.2851460776976532e-05 -2.0573012720371358e-06 7.009495616277564e-06 5.1256708488852265e-06 -1.2851460776976532e-05 5.1256708488852265e-06 3.0171143039063377e-06" free_energy=-7.79707328 pbc="T T T"
P        1.56300796       1.08674947       3.30358841      -0.00012917      -0.00000000      -0.00005185
P        4.19880653       2.35586635       3.13073309       0.00012917       0.00000000       0.00005185
