2
Lattice="2.4747 0.0 0.0 0.0 2.47708 0.0 0.0 0.0 4.951197" Properties=species:S:1:pos:R:3:forces:R:3 energy=-7.61351232 stress="-0.0006242481802665435 -0.0 -0.0 -0.0 0.0004164650896396353 -0.0 -0.0 -0.0 -0.00023509756359565526" free_energy=-7.62070923 pbc="T T T"
P        0.00000000       1.23854000       1.23702191       0.00000000       0.00000000       0.00029966
P        0.00000000       1.23854000       3.71417509       0.00000000       0.00000000      -0.00029966
2
Lattice="2.5118205 0.0 0.0 0.0 2.47708 0.0 0.0 0.0 4.951197" Properties=species:S:1:pos:R:3:forces:R:3 energy=-7.60931458 stress="0.01822158387595416 0.0 -0.0 0.0 0.0034617322821940905 -0.0 -0.0 -0.0 0.0028423937042135125" free_energy=-7.61645931 pbc="T T T"
P        0.00000000       1.23854000       1.23702191       0.00000000       0.00000000      -0.00008385
P        0.00000000       1.23854000       3.71417509       0.00000000       0.00000000       0.00008385
2
Lattice="2.4375795 0.0 0.0 0.0 2.47708 0.0 0.0 0.0 4.951197" Properties=species:S:1:pos:R:3:forces:R:3 energy=-7.60926238 stress="-0.022354892460056053 -0.0 -0.0 -0.0 -0.003178178007277037 -0.0 -0.0 -0.0 -0.003956485894067541" free_energy=-7.61594911 pbc="T T T"
P        0.00000000       1.23854000       1.23702191       0.00000000       0.00000000       0.00061558
P        0.00000000       1.23854000       3.71417509       0.00000000       0.00000000      -0.00061558
2
Lattice="2.4747 0.0 0.0 0.0 2.5142362 0.0 0.0 0.0 4.951197" Properties=species:S:1:pos:R:3:forces:R:3 energy=-7.60888046 stress="0.002362994017544461 -0.0 -0.0 -0.0 0.019248010038120263 -0.0 -0.0 -0.0 0.0027397319764959588" free_energy=-7.61599783 pbc="T T T"
P        0.00000000       1.25711810       1.23702191       0.00000000       0.00000000      -0.00009114
P        0.00000000       1.25711810       3.71417509       0.00000000       0.00000000       0.00009114
2
Lattice="2.4747 0.0 0.0 0.0 2.4399238 0.0 0.0 0.0 4.951197" Properties=species:S:1:pos:R:3:forces:R:3 energy=-7.60972401 stress="-0.004357942419927241 0.0 -0.0 0.0 -0.02107372932650897 -0.0 -0.0 -0.0 -0.0038945639631692724" free_energy=-7.6164554 pbc="T T T"
P        0.00000000       1.21996190       1.23702191       0.00000000       0.00000000       0.00061715
P        0.00000000       1.21996190       3.71417509       0.00000000       0.00000000      -0.00061715
2
Lattice="2.4747 0.0 0.0 0.0 2.47708 0.0 0.0 0.0 5.02546495" Properties=species:S:1:pos:R:3:forces:R:3 energy=-7.60915378 stress="0.002428936915866898 -0.0 -0.0 -0.0 0.003424999602890223 -0.0 -0.0 -0.0 0.018605063008044615" free_energy=-7.61628733 pbc="T T T"
P        0.00000000       1.23854000       1.25557724       0.00000000       0.00000000      -0.00089855
P        0.00000000       1.23854000       3.76988771       0.00000000       0.00000000       0.00089855
2
Lattice="2.4747 0.0 0.0 0.0 2.47708 0.0 0.0 0.0 4.87692904" Properties=species:S:1:pos:R:3:forces:R:3 energy=-7.60943415 stress="-0.004401462003907429 -0.0 -0.0 -0.0 -0.0031598379381370142 -0.0 -0.0 -0.0 -0.021868194820184962" free_energy=-7.61613835 pbc="T T T"
P        0.00000000       1.23854000       1.21846658       0.00000000       0.00000000       0.00166567
P        0.00000000       1.23854000       3.65846246       0.00000000       0.00000000      -0.00166567
2
Lattice="2.4747 0.0371205 0.0 0.0 2.47708 0.0 0.0 0.0 4.951197" Properties=species:S:1:pos:R:3:forces:R:3 energy=-7.61205085 stress="-0.0006789311027749582 0.006335368896427726 -0.0 0.006335368896427726 0.000427909820365293 -0.0 -0.0 -0.0 -0.00027647956801342936" free_energy=-7.6192773 pbc="T T T"
P        0.00000000       1.23854000       1.23702191      -0.00000000       0.00000000       0.00030136
P        0.00000000       1.23854000       3.71417509       0.00000000      -0.00000000      -0.00030136
2
Lattice="2.4747 -0.0371205 0.0 0.0 2.47708 0.0 0.0 0.0 4.951197" Properties=species:S:1:pos:R:3:forces:R:3 energy=-7.61205086 stress="-0.0006788155599580199 -0.006335339729855582 -0.0 -0.006335339729855582 0.00042802081936358765 -0.0 -0.0 -0.0 -0.00027667684339237114" free_energy=-7.61927731 pbc="T T T"
P        0.00000000       1.23854000       1.23702191       0.00000000      -0.00000000       0.00030136
P        0.00000000       1.23854000       3.71417509       0.00000000       0.00000000      -0.00030136
2
Lattice="2.4747 0.0 0.0 0.0 2.47708 0.0371562 0.0 0.0 4.951197" Properties=species:S:1:pos:R:3:forces:R:3 energy=-7.61204641 stress="-0.0006623866721198882 -0.0 -0.0 -0.0 0.0003573674104132827 0.006348710677678614 -0.0 0.006348710677678614 -0.00022431950718426063" free_energy=-7.6192743 pbc="T T T"
P        0.00000000       1.23854000       1.25560001       0.00000000      -0.00020363       0.00027558
P        0.00000000       1.23854000       3.73275319      -0.00000000       0.00020363      -0.00027558
2
Lattice="2.4747 0.0 0.0 0.0 2.47708 -0.0371562 0.0 0.0 4.951197" Properties=species:S:1:pos:R:3:forces:R:3 energy=-7.61204633 stress="-0.000662355920204425 -0.0 -0.0 -0.0 0.00035697961920978246 -0.006348682172706436 -0.0 -0.006348682172706436 -0.00022420926965007926" free_energy=-7.61927422 pbc="T T T"
P        0.00000000       1.23854000       1.21844381       0.00000000       0.00020352       0.00027557
P        0.00000000       1.23854000       3.69559699      -0.00000000      -0.00020352      -0.00027557
2
Lattice="2.4747 0.0 0.0 0.0 2.47708 0.0 0.07426795 0.0 4.951197" Properties=species:S:1:pos:R:3:forces:R:3 energy=-7.61205156 stress="-0.0006042901496818546 -0.0 0.006345983862205662 -0.0 0.0003714184580367084 -0.0 0.006345983862205662 -0.0 -0.00029620900332638287" free_energy=-7.61927468 pbc="T T T"
P        0.01855533       1.23854000       1.23702191      -0.00019929       0.00000000       0.00027315
P        0.05571262       1.23854000       3.71417509       0.00019929       0.00000000      -0.00027315
2
Lattice="2.4747 0.0 0.0 0.0 2.47708 0.0 -0.07426795 0.0 4.951197" Properties=species:S:1:pos:R:3:forces:R:3 energy=-7.61205197 stress="-0.000607614870521521 -0.0 -0.006345792753437737 -0.0 0.0003682150034778488 -0.0 -0.006345792753437737 -0.0 -0.00028828079501583005" free_energy=-7.61927509 pbc="T T T"
P       -0.01855533       1.23854000       1.23702191       0.00019998       0.00000000       0.00027316
P       -0.05571262       1.23854000       3.71417509      -0.00019998       0.00000000      -0.00027316
2
Lattice="2.4747 0.0 0.0 0.0 2.47708 0.0 0.0 0.0 4.951197" Properties=species:S:1:pos:R:3:forces:R:3 energy=-7.61332456 stress="-0.000638599481927979 -0.0 6.579917509179523e-06 -0.0 0.0004127743979123728 -0.0 6.579917509179523e-06 -0.0 -0.00023818343436409232" free_energy=-7.62052112 pbc="T T T"
P        0.01500000       1.23854000       1.23702191      -0.02539511       0.00000000       0.00029934
P        0.00000000       1.23854000       3.71417509       0.02539511       0.00000000      -0.00029934
2
Lattice="2.4747 0.0 0.0 0.0 2.47708 0.0 0.0 0.0 4.951197" Properties=species:S:1:pos:R:3:forces:R:3 energy=-7.61332448 stress="-0.0006389579817291515 -0.0 -6.587288731457191e-06 -0.0 0.0004127860133608561 -0.0 -6.587288731457191e-06 -0.0 -0.000238099922971988" free_energy=-7.62052105 pbc="T T T"
P       -0.01500000       1.23854000       1.23702191       0.02539303       0.00000000       0.00029944
P        0.00000000       1.23854000       3.71417509      -0.02539303       0.00000000      -0.00029944
2
Lattice="2.4747 0.0 0.0 0.0 2.47708 0.0 0.0 0.0 4.951197" Properties=species:S:1:pos:R:3:forces:R:3 energy=-7.61332504 stress="-0.0006282068324635986 -0.0 -0.0 -0.0 0.0004015355059161777 6.5738819698547935e-06 -0.0 6.5738819698547935e-06 -0.00023808826383294083" free_energy=-7.6205216 pbc="T T T"
P        0.00000000       1.25354001       1.23702191       0.00000000      -0.02530805       0.00029930
P        0.00000000       1.23854000       3.71417509       0.00000000       0.02530805      -0.00029930
2
Lattice="2.4747 0.0 0.0 0.0 2.47708 0.0 0.0 0.0 4.951197" Properties=species:S:1:pos:R:3:forces:R:3 energy=-7.61332517 stress="-0.0006280236192047174 -0.0 -0.0 -0.0 0.0004017076280133422 -6.573332717051716e-06 -0.0 -6.573332717051716e-06 -0.00023798717010962894" free_energy=-7.62052173 pbc="T T T"
P        0.00000000       1.22353999       1.23702191       0.00000000       0.02530516       0.00029947
P        0.00000000       1.23854000       3.71417509       0.00000000      -0.02530516      -0.00029947
2
Lattice="2.4747 0.0 0.0 0.0 2.47708 0.0 0.0 0.0 4.951197" Properties=species:S:1:pos:R:3:forces:R:3 energy=-7.61350022 stress="-0.0006673928055859944 -0.0 -0.0 -0.0 0.0003724999368059684 -0.0 -0.0 -0.0 -0.0003965225442390877" free_energy=-7.62070074 pbc="T T T"
P        0.00000000       1.23854000       1.25202191       0.00000000       0.00000000      -0.00265769
P        0.00000000       1.23854000       3.71417509       0.00000000       0.00000000       0.00265769
2
Lattice="2.4747 0.0 0.0 0.0 2.47708 0.0 0.0 0.0 4.951197" Properties=species:S:1:pos:R:3:forces:R:3 energy=-7.61349389 stress="-0.0006900996155142498 -0.0 -0.0 -0.0 0.00034940061709331366 -0.0 -0.0 -0.0 -0.0004802925345495093" free_energy=-7.62069609 pbc="T T T"
P        0.00000000       1.23854000       1.22202191       0.00000000       0.00000000       0.00329999
P        0.00000000       1.23854000       3.71417509       0.00000000       0.00000000      -0.00329999
