2
Lattice="3.094492 0.022213 2.028553 1.107152 2.889738 2.028553 0.032051 0.022213 3.699984" Properties=species:S:1:pos:R:3:forces:R:3 energy=-7.80519347 stress="-0.013712376953191403 -0.000669434852609728 -0.0017697878081532421 -0.000669434852609728 -0.013210399206444344 -0.0012265522879860513 -0.0017697878081532421 -0.0012265522879860513 -0.015989109276359752" free_energy=-7.80786923 pbc="T T T"
P        0.96432141       0.66832334       1.76685566       0.04146854       0.02873979       0.07597977
P        3.26937359       2.26584066       5.99023434      -0.04146854      -0.02873979      -0.07597977
2
Lattice="3.13082652 0.02604325 2.05849535 1.12349406 2.92241527 2.05849535 0.03757764 0.02604324 3.7467408" Properties=species:S:1:pos:R:3:forces:R:3 energy=-7.80912114 stress="0.006106338472917506 -0.0010807729544420525 -0.0028572583450345154 -0.0010807729544420525 0.006916749043851733 -0.0019802239396152347 -0.0028572583450345154 -0.0019802239396152347 0.0024306391626508" free_energy=-7.81167448 pbc="T T T"
P        0.97960658       0.67891673       1.79486156      -0.09142184      -0.06335994      -0.16750555
P        3.31229164       2.29558503       6.06886994       0.09142184       0.06335994       0.16750555
2
Lattice="3.11771504 0.02466108 2.04769052 1.11759695 2.91062353 2.04769052 0.03558333 0.02466108 3.72986839" Properties=species:S:1:pos:R:3:forces:R:3 energy=-7.81045086 stress="-0.000702453159900709 -0.0009495319993125192 -0.002510291236175801 -0.0009495319993125192 9.549483996564882e-06 -0.0017397583286468089 -0.002510291236175801 -0.0017397583286468089 -0.003931799714350195" free_energy=-7.81304583 pbc="T T T"
P        0.97409440       0.67509651       1.78476200      -0.04479029      -0.03104193      -0.08206597
P        3.29680092       2.28484918       6.04048743       0.04479029       0.03104193       0.08206597
2
Lattice="3.11991861 0.02489338 2.04950643 1.11858805 2.9126053 2.04950642 0.0359185 0.02489337 3.73270404" Properties=species:S:1:pos:R:3:forces:R:3 energy=-7.81043906 stress="0.0004681337751798507 -0.0009728359094528114 -0.0025719007296102474 -0.0009728359094528114 0.0011976103227882028 -0.0017824567984109233 -0.0025719007296102474 -0.0017824567984109233 -0.0028404697652669683" free_energy=-7.81302689 pbc="T T T"
P        0.97502091       0.67573863       1.78645958      -0.05272725      -0.03654264      -0.09660829
P        3.29940425       2.28665342       6.04525731       0.05272725       0.03654264       0.09660829
2
Lattice="3.12719827 0.03041479 2.06366146 1.12631364 2.91748327 2.06366146 0.04388533 0.03041479 3.74648403" Properties=species:S:1:pos:R:3:forces:R:3 energy=-7.8124141 stress="0.0005943045964087008 -0.0008898925196449852 -0.0023526221335809423 -0.0008898925196449852 0.0012615863530643276 -0.0016304856818442474 -0.0023526221335809423 -0.0016304856818442474 -0.0024322095325883812" free_energy=-7.81501591 pbc="T T T"
P        0.97809685       0.67787041       1.79209539      -0.03693881      -0.02560046      -0.06768029
P        3.31930039       2.30044244       6.08171156       0.03693881       0.02560046       0.06768029
2
Lattice="3.14903723 0.04697904 2.10612658 1.14949041 2.9321172 2.10612657 0.06778583 0.04697904 3.78782399" Properties=species:S:1:pos:R:3:forces:R:3 energy=-7.81580174 stress="0.0007308089412859819 -0.0007586075993251693 -0.0020055423467579786 -0.0007586075993251693 0.001299647237993201 -0.0013899418959740198 -0.0020055423467579786 -0.0013899418959740198 -0.001849206817485974" free_energy=-7.8184507 pbc="T T T"
P        0.98722112       0.68419399       1.80881312       0.01475356       0.01022496       0.02703187
P        3.37909235       2.34188129       6.19126402      -0.01475356      -0.01022496      -0.02703187
2
Lattice="3.15541638 0.05181745 2.11853062 1.15626034 2.93639176 2.11853061 0.07476716 0.05181745 3.79989937" Properties=species:S:1:pos:R:3:forces:R:3 energy=-7.81609578 stress="0.0007232531076513884 -0.0007497744720555094 -0.001982190064921961 -0.0007497744720555094 0.0012854679211157295 -0.001373757594154004 -0.001982190064921961 -0.001373757594154004 -0.0018267212815392497" free_energy=-7.81876319 pbc="T T T"
P        0.98987765       0.68603509       1.81368048       0.03067596       0.02125999       0.05620532
P        3.39656623       2.35399157       6.22328012      -0.03067596      -0.02125999      -0.05620532
2
Lattice="3.16467602 0.06397335 2.14534142 1.17089324 2.94079459 2.14534141 0.09230686 0.06397335 3.82219104" Properties=species:S:1:pos:R:3:forces:R:3 energy=-7.81672084 stress="0.0012515836918146597 -0.00019256415678188383 -0.0005090852964717035 -0.00019256415678188383 0.0013959766176610535 -0.0003528217567659567 -0.0005090852964717035 -0.0003528217567659567 0.0005966746097709629" free_energy=-7.81968616 pbc="T T T"
P        0.99981522       0.69292234       1.83188838      -0.00792415      -0.00549184      -0.01451884
P        3.42806090       2.37581895       6.28098549       0.00792415       0.00549184       0.01451884
2
Lattice="3.1657017 0.06531986 2.14831125 1.17251412 2.9412823 2.14831124 0.09424973 0.06531986 3.82466029" Properties=species:S:1:pos:R:3:forces:R:3 energy=-7.81670281 stress="0.0013207775925124772 -0.00013810110391544668 -0.00036510056532214254 -0.00013810110391544668 0.001424331606374667 -0.00025303308308017474 -0.00036510056532214254 -0.00025303308308017474 0.0008510966595674845" free_energy=-7.8197022 pbc="T T T"
P        1.00091606       0.69368527       1.83390536      -0.01214829      -0.00841938      -0.02225843
P        3.43154949       2.37823675       6.28737742       0.01214829       0.00841938       0.02225843
2
Lattice="3.16373247 0.07026345 2.15552587 1.17645175 2.9377029 2.15552586 0.10138282 0.07026345 3.82690701" Properties=species:S:1:pos:R:3:forces:R:3 energy=-7.81682108 stress="-0.0021582072133055057 0.00011162950930509546 0.00029511762552364917 0.00011162950930509546 -0.002241911318245595 0.0002045313704779782 0.00029511762552364917 0.0002045313704779782 -0.0017785554183016076" free_energy=-7.81994864 pbc="T T T"
P        1.00214517       0.69453711       1.83615738       0.00813315       0.00563669       0.01490178
P        3.43942187       2.38369269       6.30180136      -0.00813315      -0.00563669      -0.01490178
2
Lattice="3.16413014 0.06926513 2.15406894 1.17565658 2.93842573 2.15406893 0.09994235 0.06926513 3.8264533" Properties=species:S:1:pos:R:3:forces:R:3 energy=-7.81686004 stress="-0.0014502797630636857 6.205455048417594e-05 0.00016405523997020744 6.205455048417594e-05 -0.001496810556880147 0.00011369853837278013 0.00016405523997020744 0.00011369853837278013 -0.0012392321884016847" free_energy=-7.81996274 pbc="T T T"
P        1.00189688       0.69436503       1.83570244       0.00398718       0.00276332       0.00730542
P        3.43783219       2.38259096       6.29888873      -0.00398718      -0.00276332      -0.00730542
2
Lattice="3.1647913 0.06760534 2.15164665 1.17433453 2.9396275 2.15164664 0.09754744 0.06760534 3.82569898" Properties=species:S:1:pos:R:3:forces:R:3 energy=-7.81685446 stress="-0.0002797384908638907 -2.130780686523422e-05 -5.633161714401669e-05 -2.130780686523422e-05 -0.0002637608204449965 -3.904065206541803e-05 -5.633161714401669e-05 -3.904065206541803e-05 -0.00035220592578503313" free_energy=-7.8199146 pbc="T T T"
P        1.00148391       0.69407883       1.83494580      -0.00284699      -0.00197311      -0.00521634
P        3.43518936       2.38075935       6.29404647       0.00284699       0.00197311       0.00521634
2
Lattice="3.16586737 0.06831572 2.15355755 1.17537747 2.94038569 2.15355754 0.09857246 0.06831572 3.82763774" Properties=species:S:1:pos:R:3:forces:R:3 energy=-7.81688703 stress="-0.000220127391338352 -3.314485388850832e-05 -8.76254266710618e-05 -3.314485388850832e-05 -0.00019527378938021266 -6.072883522131095e-05 -8.76254266710618e-05 -6.072883522131095e-05 -0.0003328525226723868" free_energy=-7.81995013 pbc="T T T"
P        1.00190147       0.69436821       1.83571086      -0.00059989      -0.00041575      -0.00109913
P        3.43791583       2.38264892       6.29904197       0.00059989       0.00041575       0.00109913
2
Lattice="3.16787784 0.06964297 2.15712777 1.17732604 2.94180226 2.15712776 0.10048754 0.06964297 3.83126002" Properties=species:S:1:pos:R:3:forces:R:3 energy=-7.81693104 stress="-0.0001107327604814342 -5.594443136690164e-05 -0.00014790105967323327 -5.594443136690164e-05 -6.878303463507886e-05 -0.00010250288755180916 -0.00014790105967323327 -0.00010250288755180916 -0.0003009990495050419" free_energy=-7.81999953 pbc="T T T"
P        1.00268093       0.69490842       1.83713901       0.00362479       0.00251216       0.00664143
P        3.44301049       2.38617978       6.30837654      -0.00362479      -0.00251216      -0.00664143
2
Lattice="3.16952723 0.0706847 2.1599759 1.1788805 2.94298096 2.15997589 0.10199065 0.0706847 3.83418798" Properties=species:S:1:pos:R:3:forces:R:3 energy=-7.8169042 stress="0.0003401066043067803 -4.295436539676663e-05 -0.00011355924661361781 -4.295436539676663e-05 0.000372315618799972 -7.870227811527932e-05 -0.00011355924661361781 -7.870227811527932e-05 0.00019401914618176412" free_energy=-7.81998991 pbc="T T T"
P        1.00374107       0.69564315       1.83908142      -0.00111893      -0.00077548      -0.00205014
P        3.44665731       2.38870721       6.31505835       0.00111893       0.00077548       0.00205014
2
Lattice="3.16912014 0.07042759 2.15927294 1.17849684 2.94269004 2.15927293 0.10161966 0.07042759 3.83346532" Properties=species:S:1:pos:R:3:forces:R:3 energy=-7.81691269 stress="0.00022891184107833913 -4.6147758642915284e-05 -0.00012200161796294264 -4.6147758642915284e-05 0.00026351545423823977 -8.455326849817431e-05 -0.00012200161796294264 -8.455326849817431e-05 7.196374513468372e-05" free_energy=-7.81999416 pbc="T T T"
P        1.00347941       0.69546180       1.83860200       0.00005200       0.00003604       0.00009527
P        3.44575723       2.38808342       6.31340919      -0.00005200      -0.00003604      -0.00009527
2
Lattice="3.16934158 0.07121452 2.16076543 1.17931142 2.94262112 2.16076542 0.10275511 0.07121451 3.83445896" Properties=species:S:1:pos:R:3:forces:R:3 energy=-7.81691237 stress="5.3364247667843644e-05 -1.074090694907736e-05 -2.839592053046141e-05 -1.074090694907736e-05 6.141824735331952e-05 -1.967980283238446e-05 -2.839592053046141e-05 -1.967980283238446e-05 1.6834523516222813e-05" free_energy=-7.82001439 pbc="T T T"
P        1.00397179       0.69580304       1.83950414      -0.00068901      -0.00047752      -0.00126243
P        3.44743632       2.38924711       6.31648567       0.00068901       0.00047752       0.00126243
2
Lattice="3.16934478 0.0712259 2.16078703 1.1793232 2.94262012 2.16078702 0.10277154 0.0712259 3.83447333" Properties=species:S:1:pos:R:3:forces:R:3 energy=-7.81691226 stress="5.084757756565063e-05 -1.0128933220793633e-05 -2.6778033983904707e-05 -1.0128933220793633e-05 5.8442695258682434e-05 -1.8558528200937782e-05 -2.6778033983904707e-05 -1.8558528200937782e-05 1.639917201318333e-05" free_energy=-7.82001457 pbc="T T T"
P        1.00397892       0.69580798       1.83951721      -0.00070229      -0.00048672      -0.00128676
P        3.44746060       2.38926394       6.31653017       0.00070229       0.00048672       0.00128676
2
Lattice="3.16935119 0.07124867 2.16083022 1.17934677 2.94261813 2.16083021 0.1028044 0.07124867 3.83450209" Properties=species:S:1:pos:R:3:forces:R:3 energy=-7.81691225 stress="4.593338152896857e-05 -9.06121697915616e-06 -2.3955292757196625e-05 -9.06121697915616e-06 5.272787588038683e-05 -1.6602220788066565e-05 -2.3955292757196625e-05 -1.6602220788066565e-05 1.5116273502921908e-05" free_energy=-7.82001515 pbc="T T T"
P        1.00399313       0.69581784       1.83954326      -0.00072672      -0.00050365      -0.00133152
P        3.44750923       2.38929763       6.31661926       0.00072672       0.00050365       0.00133152
2
Lattice="3.169364 0.07129422 2.1609166 1.17939392 2.94261414 2.16091658 0.10287012 0.07129422 3.8345596" Properties=species:S:1:pos:R:3:forces:R:3 energy=-7.81691221 stress="3.609262502602609e-05 -6.912096866368156e-06 -1.8273628275377717e-05 -6.912096866368156e-06 4.127561165321431e-05 -1.2664546303183707e-05 -1.8273628275377717e-05 -1.2664546303183707e-05 1.2584648744863274e-05" free_energy=-7.82001628 pbc="T T T"
P        1.00402166       0.69583761       1.83959552      -0.00077343      -0.00053603      -0.00141711
P        3.44760638       2.38936497       6.31679726       0.00077343       0.00053603       0.00141711
2
Lattice="3.16938963 0.0713853 2.16108935 1.1794882 2.94260616 2.16108934 0.10300154 0.0713853 3.83467461" Properties=species:S:1:pos:R:3:forces:R:3 energy=-7.81691148 stress="1.5095333239804571e-05 -3.0074399647612187e-06 -7.9508212981159e-06 -3.0074399647612187e-06 1.7350446660568325e-05 -5.510316331786034e-06 -7.9508212981159e-06 -5.510316331786034e-06 4.86706015976338e-06" free_energy=-7.82001791 pbc="T T T"
P        1.00407865       0.69587711       1.83969996      -0.00085331      -0.00059138      -0.00156345
P        3.44780072       2.38949965       6.31715334       0.00085331       0.00059138       0.00156345
2
Lattice="3.1694409 0.07156748 2.16143487 1.17967678 2.94259021 2.16143485 0.1032644 0.07156748 3.83490464" Properties=species:S:1:pos:R:3:forces:R:3 energy=-7.81691051 stress="-2.5575039273472842e-05 5.112089325027305e-06 1.3514926955548796e-05 5.112089325027305e-06 -2.9408312035207054e-05 9.366526639557867e-06 1.3514926955548796e-05 9.366526639557867e-06 -8.188859973158835e-06" free_energy=-7.82002162 pbc="T T T"
P        1.00419261       0.69595609       1.83990875      -0.00102399      -0.00070968      -0.00187618
P        3.44818947       2.38976908       6.31786561       0.00102399       0.00070968       0.00187618
2
Lattice="3.16940759 0.07144913 2.16121041 1.17955427 2.94260058 2.1612104 0.10309364 0.07144913 3.8347552" Properties=species:S:1:pos:R:3:forces:R:3 energy=-7.81691049 stress="-1.0388492619302613e-06 -4.408565140885122e-07 -1.1654894820944326e-06 -4.408565140885122e-07 -7.082802140961063e-07 -8.077449035261819e-07 -1.1654894820944326e-06 -8.077449035261819e-07 -2.5381908256590634e-06" free_energy=-7.82001857 pbc="T T T"
P        1.00411856       0.69590477       1.83977307      -0.00089294      -0.00061885      -0.00163606
P        3.44793694       2.38959407       6.31740294       0.00089294       0.00061885       0.00163606
2
Lattice="3.16943289 0.07151877 2.16134614 1.17962836 2.94259981 2.16134613 0.10319412 0.07151876 3.8348499" Properties=species:S:1:pos:R:3:forces:R:3 energy=-7.81691885 stress="-5.7438711066729364e-05 -1.778280848073651e-06 -4.70124198681604e-06 -1.778280848073651e-06 -5.610525009103916e-05 -3.2581988354027046e-06 -4.70124198681604e-06 -3.2581988354027046e-06 -6.348659609650947e-05" free_energy=-7.82002682 pbc="T T T"
P        1.00410473       0.69589518       1.83974773       0.00009739       0.00006750       0.00017844
P        3.44815064       2.38974216       6.31779444      -0.00009739      -0.00006750      -0.00017844
2
Lattice="3.16943287 0.0715187 2.16134602 1.17962829 2.94259981 2.16134601 0.10319402 0.0715187 3.83484982" Properties=species:S:1:pos:R:3:forces:R:3 energy=-7.81691875 stress="-5.7483830936200365e-05 -1.8342609434236978e-06 -4.849228168190731e-06 -1.8342609434236978e-06 -5.61083958116386e-05 -3.3607593133592184e-06 -4.849228168190731e-06 -3.3607593133592184e-06 -6.372208823582904e-05" free_energy=-7.82002672 pbc="T T T"
P        1.00410473       0.69589518       1.83974774       0.00009640       0.00006681       0.00017663
P        3.44815045       2.38974203       6.31779411      -0.00009640      -0.00006681      -0.00017663
2
Lattice="3.16960602 0.07157787 2.1615589 1.17974448 2.94274118 2.16155889 0.10327939 0.07157786 3.83511061" Properties=species:S:1:pos:R:3:forces:R:3 energy=-7.81691995 stress="-1.753533888540436e-05 -5.76580626634494e-06 -1.5243138417414613e-05 -5.76580626634494e-06 -1.3211870479941534e-05 -1.0564259757796611e-05 -1.5243138417414613e-05 -1.0564259757796611e-05 -3.714476870239449e-05" free_energy=-7.82002725 pbc="T T T"
P        1.00415545       0.69593033       1.83984065       0.00022220       0.00015400       0.00040712
P        3.44847444       2.38996658       6.31838775      -0.00022220      -0.00015400      -0.00040712
