4
Lattice="-3.298097 0.0 0.0 0.0 0.0 -4.560235 1.649049 -5.570062 0.0" Properties=species:S:1:pos:R:3:forces:R:3 energy=-15.81281366 stress="-0.011921919825831977 3.8073205667887875e-10 -0.0 3.8073205667887875e-10 -0.004265321901019716 0.0 -0.0 0.0 -0.004329356876108026" free_energy=-15.81322705 pbc="T T T"
P       -1.64904676      -1.05754868      -1.88562069       0.00000002      -0.25219274      -0.11421414
P       -0.00000124      -4.51251332      -2.67461431      -0.00000002       0.25219274       0.11421414
P       -1.64904974      -4.51251332      -4.16573819      -0.00000002       0.25219274      -0.11421414
P        0.00000174      -1.05754868      -0.39449681       0.00000002      -0.25219274       0.11421414
4
Lattice="-3.33782451 0.0 0.0 0.0 0.0 -4.58018268 1.66891276 -5.59406655 0.0" Properties=species:S:1:pos:R:3:forces:R:3 energy=-15.81799202 stress="0.0057400363983641026 -7.552226042318743e-10 -0.0 -7.552226042318743e-10 0.00827256659966861 -0.0 -0.0 -0.0 0.008601796406889625" free_energy=-15.81840545 pbc="T T T"
P       -1.66891049      -1.07432515      -1.89940299       0.00000000      -0.01108254       0.05788187
P       -0.00000126      -4.51974140      -2.68077969      -0.00000000       0.01108254      -0.05788187
P       -1.66891352      -4.51974140      -4.18949433      -0.00000000       0.01108254       0.05788187
P        0.00000177      -1.07432515      -0.39068835       0.00000000      -0.01108254      -0.05788187
4
Lattice="-3.32134876 0.0 0.0 0.0 0.0 -4.57191 1.66067488 -5.58411141 0.0" Properties=species:S:1:pos:R:3:forces:R:3 energy=-15.82097743 stress="-0.0012747262901515934 -2.9335092891651317e-10 -0.0 -2.9335092891651317e-10 0.003244746510783688 0.0 -0.0 0.0 0.0034541816976686717" free_energy=-15.8213907 pbc="T T T"
P       -1.66067264      -1.06737659      -1.89369134       0.00000001      -0.10786715      -0.01160133
P       -0.00000124      -4.51673482      -2.67821866      -0.00000001       0.10786715       0.01160133
P       -1.66067562      -4.51673482      -4.17964634      -0.00000001       0.10786715      -0.01160133
P        0.00000174      -1.06737659      -0.39226366       0.00000001      -0.10786715       0.01160133
4
Lattice="-3.32549261 0.0 0.0 0.0 0.0 -4.57399068 1.66274681 -5.58661525 0.0" Properties=species:S:1:pos:R:3:forces:R:3 energy=-15.82089244 stress="0.0005296358709667673 -4.1193960230829507e-10 -0.0 -4.1193960230829507e-10 0.004531159951875388 -0.0 -0.0 -0.0 0.004776414903731942" free_energy=-15.82130572 pbc="T T T"
P       -1.66274456      -1.06912481      -1.89512816       0.00000001      -0.08311244       0.00612137
P       -0.00000124      -4.51749044      -2.67886252      -0.00000001       0.08311244      -0.00612137
P       -1.66274754      -4.51749044      -4.18212350      -0.00000001       0.08311244       0.00612137
P        0.00000174      -1.06912481      -0.39186718       0.00000001      -0.08311244      -0.00612137
4
Lattice="-3.33033172 -0.0 -0.0 0.0 0.0 -4.55625268 1.66516636 -5.56620839 0.0" Properties=species:S:1:pos:R:3:forces:R:3 energy=-15.82523898 stress="0.0010577929599008664 -4.4314714793771133e-10 -0.0 -4.4314714793771133e-10 0.004883625661753259 -0.0 -0.0 -0.0 0.0029181246182867784" free_energy=-15.8257031 pbc="T T T"
P       -1.66516412      -1.07094311      -1.88839793       0.00000001      -0.06601599      -0.03444638
P       -0.00000124      -4.49526528      -2.66785475      -0.00000001       0.06601599       0.03444638
P       -1.66516710      -4.49526528      -4.16652427      -0.00000001       0.06601599      -0.03444638
P        0.00000174      -1.07094311      -0.38972841       0.00000001      -0.06601599       0.03444638
4
Lattice="-3.34358947 -0.0 -0.0 0.0 0.0 -4.50765579 1.67179524 -5.5102996 0.0" Properties=species:S:1:pos:R:3:forces:R:3 energy=-15.83270454 stress="0.0023102493083139615 -5.055622391965439e-10 -0.0 -5.055622391965439e-10 0.005594994243221452 -0.0 -0.0 -0.0 -0.002240636053100994" free_energy=-15.83329998 pbc="T T T"
P       -1.67179298      -1.07576670      -1.86994101       0.00000000      -0.02013040      -0.14567834
P       -0.00000125      -4.43453290      -2.63771478      -0.00000000       0.02013040       0.14567834
P       -1.67179598      -4.43453290      -4.12376890      -0.00000000       0.02013040      -0.14567834
P        0.00000175      -1.07576670      -0.38388689       0.00000000      -0.02013040       0.14567834
4
Lattice="-3.37010496 -1e-08 -0.0 0.0 0.0 -4.41046201 1.68505298 -5.39848202 0.0" Properties=species:S:1:pos:R:3:forces:R:3 energy=-15.82761325 stress="0.003794651233248104 -5.30528275700077e-10 -0.0 -5.30528275700077e-10 0.005863237515792367 -0.0 -0.0 -0.0 -0.0128682921859797" free_energy=-15.82839136 pbc="T T T"
P       -1.68505071      -1.08477514      -1.83295365      -0.00000001       0.07019598      -0.36691929
P       -0.00000127      -4.31370689      -2.57750836       0.00000001      -0.07019598       0.36691929
P       -1.68505375      -4.31370690      -4.03818466       0.00000001      -0.07019598      -0.36691929
P        0.00000177      -1.08477513      -0.37227735      -0.00000001       0.07019598       0.36691929
4
Lattice="-3.3517368 -1e-08 -0.0 0.0 0.0 -4.47779136 1.6758689 -5.47594175 0.0" Properties=species:S:1:pos:R:3:forces:R:3 energy=-15.83402129 stress="0.0028841283164478446 -5.055622391965439e-10 -0.0 -5.055622391965439e-10 0.0055990713779862445 0.0 -0.0 0.0 -0.005534708842257499" free_energy=-15.83468133 pbc="T T T"
P       -1.67586661      -1.07822186      -1.85853999      -0.00000000       0.00248048      -0.21386022
P       -0.00000129      -4.39771990      -2.61925137       0.00000000      -0.00248048       0.21386022
P       -1.67586969      -4.39771990      -4.09743567       0.00000000      -0.00248048      -0.21386022
P        0.00000179      -1.07822186      -0.38035569      -0.00000000       0.00248048       0.21386022
4
Lattice="-3.3526235 -1e-08 0.0 0.0 0.0 -4.47306631 1.67631225 -5.46086205 0.0" Properties=species:S:1:pos:R:3:forces:R:3 energy=-15.83631285 stress="0.0030663225803076208 -4.306641296859448e-10 -0.0 -4.306641296859448e-10 0.0047586826015430525 0.0 -0.0 0.0 -0.004965877554765029" free_energy=-15.83697484 pbc="T T T"
P       -1.67630996      -1.07812266      -1.85858437       0.00000000      -0.00347569      -0.18493734
P       -0.00000129      -4.38273940      -2.61448194      -0.00000000       0.00347569       0.18493734
P       -1.67631304      -4.38273941      -4.09511752      -0.00000000       0.00347569      -0.18493734
P        0.00000179      -1.07812265      -0.37794879       0.00000000      -0.00347569       0.18493734
4
Lattice="-3.35528359 -1e-08 0.0 0.0 0.0 -4.45889118 1.67764229 -5.41562292 0.0" Properties=species:S:1:pos:R:3:forces:R:3 energy=-15.84129794 stress="0.003535150342645669 -1.7476225552473124e-10 -0.0 -1.7476225552473124e-10 0.002032988010007043 0.0 -0.0 0.0 -0.0032816444402831726" free_energy=-15.84198492 pbc="T T T"
P       -1.67764002      -1.07775348      -1.85869846       0.00000000      -0.02157523      -0.09931213
P       -0.00000128      -4.33786945      -2.60019272      -0.00000000       0.02157523       0.09931213
P       -1.67764308      -4.33786945      -4.08814405      -0.00000000       0.02157523      -0.09931213
P        0.00000178      -1.07775348      -0.37074713       0.00000000      -0.02157523       0.09931213
4
Lattice="-3.36060377 -1e-08 0.0 0.0 0.0 -4.4305409 1.68030237 -5.32514467 0.0" Properties=species:S:1:pos:R:3:forces:R:3 energy=-15.84221271 stress="0.004110563420100057 4.1818111143417834e-10 -0.0 4.1818111143417834e-10 -0.004360971056056993 -0.0 -0.0 -0.0 -3.1538089711213944e-05" free_energy=-15.84305409 pbc="T T T"
P       -1.68030009      -1.07672674      -1.85885005       0.00000001      -0.05800153       0.06689646
P       -0.00000131      -4.24841794      -2.57169085      -0.00000001       0.05800153      -0.06689646
P       -1.68030320      -4.24841795      -4.07412050      -0.00000001       0.05800153       0.06689646
P        0.00000180      -1.07672673      -0.35642040       0.00000001      -0.05800153      -0.06689646
4
Lattice="-3.35824495 -1e-08 0.0 0.0 0.0 -4.44311061 1.67912297 -5.36526016 0.0" Properties=species:S:1:pos:R:3:forces:R:3 energy=-15.84334797 stress="0.003903391223420354 1.4355470989531495e-10 -0.0 1.4355470989531495e-10 -0.0014351627156136317 -0.0 -0.0 -0.0 -0.0014815074125939963" free_energy=-15.84410367 pbc="T T T"
P       -1.67912068      -1.07712432      -1.85876768       0.00000000      -0.04324745      -0.00627597
P       -0.00000130      -4.28813585      -2.58434293      -0.00000000       0.04324745       0.00627597
P       -1.67912378      -4.28813585      -4.08032299      -0.00000000       0.04324745      -0.00627597
P        0.00000180      -1.07712432      -0.36278762       0.00000000      -0.04324745       0.00627597
4
Lattice="-3.35363255 -1e-08 0.0 0.0 0.0 -4.44494386 1.67681676 -5.36634716 0.0" Properties=species:S:1:pos:R:3:forces:R:3 energy=-15.84394483 stress="0.0026699533712232285 6.865660038471585e-11 -0.0 6.865660038471585e-11 -0.0006520727343270943 -0.0 -0.0 -0.0 -0.001292174372739418" free_energy=-15.84472369 pbc="T T T"
P       -1.67681450      -1.07844732      -1.85987603       0.00000000      -0.02731591      -0.00123720
P       -0.00000129      -4.28789985      -2.58506783      -0.00000000       0.02731591       0.00123720
P       -1.67681756      -4.28789986      -4.08234796      -0.00000000       0.02731591      -0.00123720
P        0.00000177      -1.07844731      -0.36259590       0.00000000      -0.02731591       0.00123720
4
Lattice="-3.35005767 -1e-08 0.0 0.0 0.0 -4.44636474 1.67502932 -5.36718965 0.0" Properties=species:S:1:pos:R:3:forces:R:3 energy=-15.84425148 stress="0.0017055604635121636 1.2483018251766518e-11 -0.0 1.2483018251766518e-11 -5.034727067713807e-05 0.0 -0.0 0.0 -0.0011437896023504376" free_energy=-15.84504771 pbc="T T T"
P       -1.67502706      -1.07947291      -1.86073517       0.00000000      -0.01512825       0.00275288
P       -0.00000129      -4.28771675      -2.58562957      -0.00000000       0.01512825      -0.00275288
P       -1.67503012      -4.28771675      -4.08391754      -0.00000000       0.01512825       0.00275288
P        0.00000177      -1.07947291      -0.36244720       0.00000000      -0.01512825      -0.00275288
4
Lattice="-3.34290792 -1e-08 -0.0 0.0 0.0 -4.44920649 1.67145445 -5.36887463 0.0" Properties=species:S:1:pos:R:3:forces:R:3 energy=-15.84445059 stress="-0.00024603874184805485 -1.0610565514001539e-10 -0.0 -1.0610565514001539e-10 0.001139688256771747 0.0 -0.0 0.0 -0.000842411106539597" free_energy=-15.84527992 pbc="T T T"
P       -1.67145221      -1.08152453      -1.86245376      -0.00000000       0.00882417       0.01093727
P       -0.00000126      -4.28735011      -2.58675273       0.00000000      -0.00882417      -0.01093727
P       -1.67145522      -4.28735012      -4.08705701       0.00000000      -0.00882417       0.01093727
P        0.00000175      -1.08152452      -0.36214948      -0.00000000       0.00882417      -0.01093727
4
Lattice="-3.34432769 -1e-08 -0.0 0.0 0.0 -4.44864219 1.67216434 -5.36854003 0.0" Properties=species:S:1:pos:R:3:forces:R:3 energy=-15.844455 stress="0.00014356012128372708 -8.113961863648236e-11 -0.0 -8.113961863648236e-11 0.000904815612198952 0.0 -0.0 0.0 -0.0009027630045417774" free_energy=-15.84527795 pbc="T T T"
P       -1.67216207      -1.08111713      -1.86211251      -0.00000000       0.00411036       0.00929331
P       -0.00000128      -4.28742291      -2.58652968       0.00000000      -0.00411036      -0.00929331
P       -1.67216512      -4.28742291      -4.08643361       0.00000000      -0.00411036       0.00929331
P        0.00000177      -1.08111713      -0.36220858      -0.00000000       0.00411036      -0.00929331
4
Lattice="-3.34358211 -1e-08 -0.0 0.0 0.0 -4.45086561 1.67179154 -5.36621358 0.0" Properties=species:S:1:pos:R:3:forces:R:3 energy=-15.84454835 stress="-1.0760336766986233e-05 -4.993207300706607e-11 -0.0 -4.993207300706607e-11 0.000557842754910333 -0.0 -0.0 -0.0 -0.0007626357007942679" free_energy=-15.84537432 pbc="T T T"
P       -1.67178927      -1.08066618      -1.86284620       0.00000000      -0.00010082       0.01182331
P       -0.00000130      -4.28554741      -2.58801941      -0.00000000       0.00010082      -0.01182331
P       -1.67179236      -4.28554741      -4.08827900      -0.00000000       0.00010082       0.01182331
P        0.00000179      -1.08066618      -0.36258661       0.00000000      -0.00010082      -0.01182331
4
Lattice="-3.34134536 -1e-08 0.0 0.0 0.0 -4.45753588 1.67067317 -5.35923423 0.0" Properties=species:S:1:pos:R:3:forces:R:3 energy=-15.84471914 stress="-0.0004771129100724924 4.369056388118281e-11 -0.0 4.369056388118281e-11 -0.0004850253648140114 -0.0 -0.0 -0.0 -0.0003431332993271949" free_energy=-15.84555534 pbc="T T T"
P       -1.67067091      -1.07931312      -1.86504634       0.00000000      -0.01280486       0.01947054
P       -0.00000128      -4.27992112      -2.59248954      -0.00000000       0.01280486      -0.01947054
P       -1.67067396      -4.27992112      -4.09381428      -0.00000000       0.01280486       0.01947054
P        0.00000177      -1.07931312      -0.36372160       0.00000000      -0.01280486      -0.01947054
4
Lattice="-3.34142316 -1e-08 0.0 0.0 0.0 -4.45991169 1.67071207 -5.35849474 0.0" Properties=species:S:1:pos:R:3:forces:R:3 energy=-15.84474558 stress="-0.00033156032431352775 2.4966036503533036e-11 -0.0 2.4966036503533036e-11 -0.0003042442285524081 -0.0 -0.0 -0.0 -0.0002531134487516796" free_energy=-15.84558218 pbc="T T T"
P       -1.67070983      -1.07944364      -1.86548196       0.00000000      -0.00816502       0.01438866
P       -0.00000126      -4.27905111      -2.59442973      -0.00000000       0.00816502      -0.01438866
P       -1.67071284      -4.27905111      -4.09543781      -0.00000000       0.00816502       0.01438866
P        0.00000175      -1.07944364      -0.36447388       0.00000000      -0.00816502      -0.01438866
4
Lattice="-3.3416289 -1e-08 0.0 0.0 0.0 -4.46619439 1.67081494 -5.35653919 0.0" Properties=species:S:1:pos:R:3:forces:R:3 energy=-15.84472643 stress="4.8893698099829376e-05 -1.2483018251766518e-11 -0.0 -1.2483018251766518e-11 0.00016958626562927313 -0.0 -0.0 -0.0 -1.888876644878827e-05" free_energy=-15.84556446 pbc="T T T"
P       -1.67081268      -1.07978853      -1.86663183      -0.00000000       0.00402563       0.00092342
P       -0.00000128      -4.27675067      -2.59956256       0.00000000      -0.00402563      -0.00092342
P       -1.67081573      -4.27675067      -4.09972903       0.00000000      -0.00402563       0.00092342
P        0.00000177      -1.07978853      -0.36646536      -0.00000000       0.00402563      -0.00092342
4
Lattice="-3.34154105 -1e-08 0.0 0.0 0.0 -4.46673078 1.67077101 -5.3558131 0.0" Properties=species:S:1:pos:R:3:forces:R:3 energy=-15.84474173 stress="1.7894225660142653e-05 -0.0 -0.0 -0.0 2.110546338088221e-05 -0.0 -0.0 -0.0 -4.999337710970049e-05" free_energy=-15.84557984 pbc="T T T"
P       -1.67076876      -1.07957115      -1.86671348      -0.00000000       0.00187926      -0.00012723
P       -0.00000128      -4.27624196      -2.60001730       0.00000000      -0.00187926       0.00012723
P       -1.67077181      -4.27624197      -4.10007887       0.00000000      -0.00187926      -0.00012723
P        0.00000177      -1.07957114      -0.36665191      -0.00000000       0.00187926       0.00012723
4
Lattice="-3.34153974 -1e-08 0.0 0.0 0.0 -4.46673878 1.67077036 -5.35580227 0.0" Properties=species:S:1:pos:R:3:forces:R:3 energy=-15.84474188 stress="1.7117582196590747e-05 -0.0 -0.0 -0.0 1.9760992383093948e-05 0.0 -0.0 0.0 -5.0787596662950886e-05" free_energy=-15.84557999 pbc="T T T"
P       -1.67076810      -1.07956789      -1.86671473      -0.00000000       0.00183776      -0.00015421
P       -0.00000128      -4.27623439      -2.60002405       0.00000000      -0.00183776       0.00015421
P       -1.67077115      -4.27623439      -4.10008412       0.00000000      -0.00183776      -0.00015421
P        0.00000177      -1.07956789      -0.36665466      -0.00000000       0.00183776       0.00015421
4
Lattice="-3.34153712 -1e-08 0.0 0.0 0.0 -4.46675478 1.67076905 -5.35578062 0.0" Properties=species:S:1:pos:R:3:forces:R:3 energy=-15.84474233 stress="1.6449697029557358e-05 -0.0 -0.0 -0.0 1.4238729802840974e-05 0.0 -0.0 0.0 -5.112405769539988e-05" free_energy=-15.84558045 pbc="T T T"
P       -1.67076677      -1.07956144      -1.86671717      -0.00000000       0.00177340      -0.00018432
P       -0.00000130      -4.27621919      -2.60003761       0.00000000      -0.00177340       0.00018432
P       -1.67076986      -4.27621920      -4.10009456       0.00000000      -0.00177340      -0.00018432
P        0.00000179      -1.07956143      -0.36666022      -0.00000000       0.00177340       0.00018432
4
Lattice="-3.34153188 -1e-08 0.0 0.0 0.0 -4.46678677 1.67076643 -5.35573732 0.0" Properties=species:S:1:pos:R:3:forces:R:3 energy=-15.84474314 stress="1.4700389266846055e-05 -0.0 -0.0 -0.0 5.383825907840884e-06 -0.0 -0.0 -0.0 -5.312464861551923e-05" free_energy=-15.84558126 pbc="T T T"
P       -1.67076419      -1.07954843      -1.86672201      -0.00000000       0.00165111      -0.00024055
P       -0.00000126      -4.27618890      -2.60006476       0.00000000      -0.00165111       0.00024055
P       -1.67076720      -4.27618891      -4.10011539       0.00000000      -0.00165111      -0.00024055
P        0.00000175      -1.07954842      -0.36667138      -0.00000000       0.00165111       0.00024055
4
Lattice="-3.34152141 -1e-08 0.0 0.0 0.0 -4.46685075 1.67076119 -5.35565071 0.0" Properties=species:S:1:pos:R:3:forces:R:3 energy=-15.84474476 stress="1.0899091756363744e-05 0.0 -0.0 0.0 -1.2016571550261883e-05 0.0 -0.0 0.0 -5.6993460530216224e-05" free_energy=-15.84558289 pbc="T T T"
P       -1.67075895      -1.07952251      -1.86673177      -0.00000000       0.00139651      -0.00036433
P       -0.00000127      -4.27612821      -2.60011898       0.00000000      -0.00139651       0.00036433
P       -1.67076197      -4.27612822      -4.10015714       0.00000000      -0.00139651      -0.00036433
P        0.00000175      -1.07952250      -0.36669361      -0.00000000       0.00139651       0.00036433
4
Lattice="-3.34150045 -1e-08 0.0 0.0 0.0 -4.46697871 1.67075071 -5.3554775 0.0" Properties=species:S:1:pos:R:3:forces:R:3 energy=-15.84474778 stress="3.6562323553785314e-06 6.241509125883259e-12 -0.0 6.241509125883259e-12 -4.8109196576287986e-05 0.0 -0.0 0.0 -6.410080428506026e-05" free_energy=-15.84558593 pbc="T T T"
P       -1.67074844      -1.07947067      -1.86675121      -0.00000000       0.00088364      -0.00061337
P       -0.00000130      -4.27600684      -2.60022750       0.00000000      -0.00088364       0.00061337
P       -1.67075153      -4.27600685      -4.10024056       0.00000000      -0.00088364      -0.00061337
P        0.00000179      -1.07947066      -0.36673815      -0.00000000       0.00088364       0.00061337
4
Lattice="-3.34148085 -1e-08 0.0 0.0 0.0 -4.46724512 1.67074091 -5.35556396 0.0" Properties=species:S:1:pos:R:3:forces:R:3 energy=-15.84474575 stress="1.79300706470526e-05 6.241509125883259e-12 -0.0 6.241509125883259e-12 -5.236043199663697e-05 -0.0 -0.0 -0.0 -1.924073138990595e-05" free_energy=-15.8455836 pbc="T T T"
P       -1.67073866      -1.07944841      -1.86686576      -0.00000000       0.00068890       0.00028033
P       -0.00000128      -4.27611556      -2.60037936       0.00000000      -0.00068890      -0.00028033
P       -1.67074171      -4.27611556      -4.10048832       0.00000000      -0.00068890       0.00028033
P        0.00000177      -1.07944841      -0.36675680      -0.00000000       0.00068890      -0.00028033
4
Lattice="-3.34145888 -1e-08 0.0 0.0 0.0 -4.46754365 1.67072993 -5.35566085 0.0" Properties=species:S:1:pos:R:3:forces:R:3 energy=-15.84474328 stress="3.394636976592687e-05 6.241509125883259e-12 -0.0 6.241509125883259e-12 -5.774729751942216e-05 0.0 -0.0 0.0 3.128919081029197e-05" free_energy=-15.84558079 pbc="T T T"
P       -1.67072765      -1.07942354      -1.86699409      -0.00000000       0.00046825       0.00127821
P       -0.00000130      -4.27623732      -2.60054956       0.00000000      -0.00046825      -0.00127821
P       -1.67073074      -4.27623732      -4.10076591       0.00000000      -0.00046825       0.00127821
P        0.00000179      -1.07942354      -0.36677774      -0.00000000       0.00046825      -0.00127821
4
Lattice="-3.3413998 -1e-08 0.0 0.0 0.0 -4.46765752 1.67070039 -5.35584315 0.0" Properties=species:S:1:pos:R:3:forces:R:3 energy=-15.84474389 stress="2.0519903719219218e-05 6.241509125883259e-12 -0.0 6.241509125883259e-12 -4.551162403280526e-05 0.0 -0.0 0.0 2.9280598275473227e-05" free_energy=-15.84558116 pbc="T T T"
P       -1.67069813      -1.07942520      -1.86701750      -0.00000000       0.00053541       0.00106582
P       -0.00000128      -4.27641796      -2.60064002       0.00000000      -0.00053541      -0.00106582
P       -1.67070118      -4.27641796      -4.10084626       0.00000000      -0.00053541       0.00106582
P        0.00000177      -1.07942520      -0.36681126      -0.00000000       0.00053541      -0.00106582
4
Lattice="-3.34122256 -1e-08 0.0 0.0 0.0 -4.46799914 1.67061177 -5.35639004 0.0" Properties=species:S:1:pos:R:3:forces:R:3 energy=-15.84474578 stress="-1.9741375319911295e-05 0.0 -0.0 0.0 -7.983807673846193e-06 0.0 -0.0 0.0 2.3825538023978637e-05" free_energy=-15.84558232 pbc="T T T"
P       -1.67060951      -1.07943023      -1.86708779      -0.00000000       0.00073407       0.00042711
P       -0.00000128      -4.27695982      -2.60091135       0.00000000      -0.00073407      -0.00042711
P       -1.67061256      -4.27695983      -4.10108736       0.00000000      -0.00073407       0.00042711
P        0.00000177      -1.07943022      -0.36691178      -0.00000000       0.00073407      -0.00042711
