4
Lattice="3.299918 0.0 0.0 0.0 35.235589 0.0 0.0 0.0 4.600926" Properties=species:S:1:pos:R:3:forces:R:3 energy=-15.39245921 stress="-0.0013936045508422888 -0.0 0.0 -0.0 -0.0011586864805660758 -0.0 0.0 -0.0 -0.0008845395892073174" free_energy=-15.39247323 pbc="T T T"
P        0.00000000       4.15836327       2.70790720       0.00000000      -0.14946647      -0.11067219
P        0.00000000       6.26464108       1.89301880      -0.00000000       0.14946647       0.11067219
P        1.64995900       6.26464108       0.40744420       0.00000000       0.14946647      -0.11067219
P        1.64995900       4.15836327       4.19348180       0.00000000      -0.14946647       0.11067219
4
Lattice="3.32958978 0.0 -0.0 0.0 35.4990088 0.0 0.0 0.0 4.62718411" Properties=species:S:1:pos:R:3:forces:R:3 energy=-15.39302268 stress="0.0008952970548801059 -0.0 0.0 -0.0 0.0005771092512499107 0.0 0.0 0.0 0.0011127458651280302" free_energy=-15.39303799 pbc="T T T"
P        0.00000000       4.18218651       2.71799203       0.00000000       0.07216060       0.07193727
P        0.00000000       6.31873979       1.90919208      -0.00000000      -0.07216060      -0.07193727
P        1.66479489       6.31873979       0.40439997       0.00000000      -0.07216060       0.07193727
P        1.66479489       4.18218651       4.22278414      -0.00000000       0.07216060      -0.07193727
4
Lattice="3.3140181 0.0 -0.0 0.0 35.36076668 0.0 0.0 0.0 4.61340391" Properties=species:S:1:pos:R:3:forces:R:3 energy=-15.39700228 stress="-0.00026593122410390374 -0.0 0.0 -0.0 -0.0003086743081752501 -0.0 0.0 -0.0 9.53683807492493e-05" free_energy=-15.39701699 pbc="T T T"
P        0.00000000       4.16966947       2.71269119      -0.00000000      -0.04133211      -0.02225389
P        0.00000000       6.29036356       1.90071272       0.00000000       0.04133211       0.02225389
P        1.65700905       6.29036356       0.40598923       0.00000000       0.04133211      -0.02225389
P        1.65700905       4.16966947       4.20741468      -0.00000000      -0.04133211       0.02225389
4
Lattice="3.31744802 0.0 -0.0 0.0 35.39121684 0.0 0.0 0.0 4.61643923" Properties=species:S:1:pos:R:3:forces:R:3 energy=-15.3969321 stress="-2.9098726941054113e-06 -0.0 -0.0 -0.0 -0.0001090903760115584 -0.0 -0.0 -0.0 0.0003250044054069373" free_energy=-15.39694689 pbc="T T T"
P        0.00000000       4.17242592       2.71385837       0.00000000      -0.01567290      -0.00120105
P        0.00000000       6.29661454       1.90258086      -0.00000000       0.01567290       0.00120105
P        1.65872401       6.29661454       0.40563876       0.00000000       0.01567290      -0.00120105
P        1.65872401       4.17242592       4.21080047      -0.00000000      -0.01567290       0.00120105
4
Lattice="3.31821411 0.0 -0.0 0.0 35.42067077 0.0 0.0 0.0 4.60805952" Properties=species:S:1:pos:R:3:forces:R:3 energy=-15.39720449 stress="-3.581886619425573e-05 -0.0 0.0 -0.0 4.423528534863515e-05 -0.0 0.0 -0.0 0.00016057675955322492" free_energy=-15.39722435 pbc="T T T"
P        0.00000000       4.17503198       2.70875259       0.00000000       0.00379648      -0.02601064
P        0.00000000       6.30272122       1.89930693      -0.00000000      -0.00379648       0.02601064
P        1.65910705       6.30272122       0.40472283       0.00000000      -0.00379648      -0.02601064
P        1.65910705       4.17503198       4.20333669      -0.00000000       0.00379648       0.02601064
4
Lattice="3.31884062 0.0 -0.0 0.0 35.44475847 0.0 0.0 0.0 4.60120651" Properties=species:S:1:pos:R:3:forces:R:3 energy=-15.39723368 stress="-6.340643639480574e-05 -0.0 -0.0 -0.0 0.00016939222959356766 0.0 -0.0 0.0 2.5632598470631736e-05" free_energy=-15.39725891 pbc="T T T"
P        0.00000000       4.17716301       2.70457722      -0.00000000       0.01971082      -0.04630773
P        0.00000000       6.30771554       1.89662929      -0.00000000      -0.01971082       0.04630773
P        1.65942031       6.30771554       0.40397397      -0.00000000      -0.01971082      -0.04630773
P        1.65942031       4.17716301       4.19723254       0.00000000       0.01971082       0.04630773
4
Lattice="3.31862421 0.0 -0.0 0.0 35.43643792 0.0 0.0 0.0 4.60357373" Properties=species:S:1:pos:R:3:forces:R:3 energy=-15.39724439 stress="-5.3790430393977204e-05 -0.0 0.0 -0.0 0.00012618338538672054 0.0 0.0 0.0 7.232350572069963e-05" free_energy=-15.39726755 pbc="T T T"
P        0.00000000       4.17642695       2.70601954       0.00000000       0.01423296      -0.03930447
P        0.00000000       6.30599032       1.89755419      -0.00000000      -0.01423296       0.03930447
P        1.65931210       6.30599032       0.40423267       0.00000000      -0.01423296      -0.03930447
P        1.65931210       4.17642695       4.19934106      -0.00000000       0.01423296       0.03930447
4
Lattice="3.31976501 0.0 -0.0 0.0 35.43640674 0.0 0.0 -0.0 4.59738484" Properties=species:S:1:pos:R:3:forces:R:3 energy=-15.39748607 stress="-2.9289941814634677e-05 -0.0 -0.0 -0.0 9.092313425923137e-05 0.0 -0.0 0.0 4.994116688586247e-05" free_energy=-15.39750899 pbc="T T T"
P        0.00000000       4.17632334       2.70115287      -0.00000000       0.00973619      -0.03039681
P        0.00000000       6.30608470       1.89623197       0.00000000      -0.00973619       0.03039681
P        1.65988250       6.30608470       0.40246045      -0.00000000      -0.00973619      -0.03039681
P        1.65988250       4.17632334       4.19492439       0.00000000       0.00973619       0.03039681
4
Lattice="3.32316308 0.0 -0.0 0.0 35.43631387 -0.0 0.0 -0.0 4.57895012" Properties=species:S:1:pos:R:3:forces:R:3 energy=-15.39783622 stress="3.929428827176655e-05 -0.0 -0.0 -0.0 -1.5014855221135431e-05 0.0 -0.0 0.0 -1.9152120684845786e-05" free_energy=-15.39785862 pbc="T T T"
P        0.00000000       4.17601438       2.68667133      -0.00000000      -0.00374595      -0.00422980
P        0.00000000       6.30636619       1.89227879       0.00000000       0.00374595       0.00422980
P        1.66158154       6.30636619       0.39719627      -0.00000000       0.00374595      -0.00422980
P        1.66158154       4.17601438       4.18175385       0.00000000      -0.00374595       0.00422980
4
Lattice="3.32240596 0.0 -0.0 0.0 35.43958844 -0.0 0.0 -0.0 4.57923766" Properties=species:S:1:pos:R:3:forces:R:3 energy=-15.3978442 stress="9.031226527806293e-06 -0.0 0.0 -0.0 8.614905386091625e-06 -0.0 0.0 -0.0 5.218500814114489e-06" free_energy=-15.39786703 pbc="T T T"
P        0.00000000       4.17622520       2.68659638       0.00000000      -0.00073363       0.00030171
P        0.00000000       6.30712402       1.89264128      -0.00000000       0.00073363      -0.00030171
P        1.66120298       6.30712402       0.39697755       0.00000000       0.00073363       0.00030171
P        1.66120298       4.17622520       4.18226011      -0.00000000      -0.00073363      -0.00030171
4
Lattice="3.32238098 0.0 -0.0 0.0 35.43969648 -0.0 0.0 -0.0 4.57924715" Properties=species:S:1:pos:R:3:forces:R:3 energy=-15.39784335 stress="8.027229852834963e-06 -0.0 -0.0 -0.0 9.360160300249466e-06 -0.0 -0.0 -0.0 6.021421031086363e-06" free_energy=-15.39786618 pbc="T T T"
P        0.00000000       4.17623191       2.68659393       0.00000000      -0.00065060       0.00045249
P        0.00000000       6.30714927       1.89265322      -0.00000000       0.00065060      -0.00045249
P        1.66119049       6.30714927       0.39697036       0.00000000       0.00065060       0.00045249
P        1.66119049       4.17623191       4.18227679      -0.00000000      -0.00065060      -0.00045249
4
Lattice="3.32233102 0.0 -0.0 0.0 35.43991257 -0.0 0.0 -0.0 4.57926612" Properties=species:S:1:pos:R:3:forces:R:3 energy=-15.39784578 stress="6.038285588744499e-06 -0.0 0.0 -0.0 1.0952113376388121e-05 0.0 0.0 0.0 7.641279894526845e-06" free_energy=-15.39786868 pbc="T T T"
P        0.00000000       4.17624603       2.68658899       0.00000000      -0.00042695       0.00074444
P        0.00000000       6.30719907       1.89267713      -0.00000000       0.00042695      -0.00074444
P        1.66116551       6.30719907       0.39695593       0.00000000       0.00042695       0.00074444
P        1.66116551       4.17624603       4.18231019      -0.00000000      -0.00042695      -0.00074444
4
Lattice="3.32236082 0.0 -0.0 0.0 35.43978368 -0.0 0.0 -0.0 4.57925481" Properties=species:S:1:pos:R:3:forces:R:3 energy=-15.397861 stress="7.2568715889728205e-06 -0.0 -0.0 -0.0 1.001496950566413e-05 0.0 -0.0 0.0 6.681785179623064e-06" free_energy=-15.39788385 pbc="T T T"
P        0.00000000       4.17623758       2.68659192       0.00000000      -0.00038563       0.00055217
P        0.00000000       6.30716939       1.89266289      -0.00000000       0.00038563      -0.00055217
P        1.66118041       6.30716939       0.39696452       0.00000000       0.00038563       0.00055217
P        1.66118041       4.17623758       4.18229029      -0.00000000      -0.00038563      -0.00055217
4
Lattice="3.32215852 0.0 -0.0 0.0 35.43779795 -0.0 0.0 -0.0 4.57908398" Properties=species:S:1:pos:R:3:forces:R:3 energy=-15.39786063 stress="-6.696658695870043e-06 -0.0 0.0 -0.0 5.651667788959913e-06 -0.0 0.0 -0.0 -2.6694560040855144e-06" free_energy=-15.39788357 pbc="T T T"
P        0.00000000       4.17597381       2.68650044      -0.00000000      -0.00106400      -0.00025022
P        0.00000000       6.30684576       1.89258354       0.00000000       0.00106400       0.00025022
P        1.66107926       6.30684576       0.39695845      -0.00000000       0.00106400      -0.00025022
P        1.66107926       4.17597381       4.18212553       0.00000000      -0.00106400       0.00025022
4
Lattice="3.32215417 0.0 -0.0 0.0 35.43775517 -0.0 0.0 -0.0 4.5790803" Properties=species:S:1:pos:R:3:forces:R:3 energy=-15.39786074 stress="-6.985584394816305e-06 -0.0 0.0 -0.0 5.554543665452044e-06 0.0 0.0 0.0 -2.865096107636325e-06" free_energy=-15.39788368 pbc="T T T"
P        0.00000000       4.17596806       2.68649847      -0.00000000      -0.00107505      -0.00027373
P        0.00000000       6.30683886       1.89258183       0.00000000       0.00107505       0.00027373
P        1.66107709       6.30683886       0.39695832      -0.00000000       0.00107505      -0.00027373
P        1.66107709       4.17596806       4.18212198       0.00000000      -0.00107505       0.00027373
4
Lattice="3.32215719 0.0 -0.0 0.0 35.43545861 -0.0 0.0 -0.0 4.57904737" Properties=species:S:1:pos:R:3:forces:R:3 energy=-15.39786107 stress="-7.131267459323546e-06 -0.0 -0.0 -0.0 4.588258188619301e-06 0.0 -0.0 0.0 -3.2421768814765623e-06" free_energy=-15.39788401 pbc="T T T"
P        0.00000000       4.17563542       2.68647343      -0.00000000      -0.00120919      -0.00022529
P        0.00000000       6.30649215       1.89257394       0.00000000       0.00120919       0.00022529
P        1.66107859       6.30649215       0.39694974      -0.00000000       0.00120919      -0.00022529
P        1.66107859       4.17563542       4.18209763       0.00000000      -0.00120919       0.00022529
4
Lattice="3.32216626 0.0 -0.0 0.0 35.42856894 -0.0 -0.0 -0.0 4.57894856" Properties=species:S:1:pos:R:3:forces:R:3 energy=-15.39785993 stress="-7.5666439283995325e-06 -0.0 -0.0 -0.0 1.6998001123247948e-06 0.0 -0.0 0.0 -4.3370561708298775e-06" free_energy=-15.39788336 pbc="T T T"
P        0.00000000       4.17463756       2.68639815       0.00000000      -0.00165308      -0.00007022
P        0.00000000       6.30545199       1.89255041      -0.00000000       0.00165308       0.00007022
P        1.66108313       6.30545199       0.39692387       0.00000000       0.00165308      -0.00007022
P        1.66108313       4.17463756       4.18202469      -0.00000000      -0.00165308       0.00007022
4
Lattice="3.32218439 0.0 -0.0 0.0 35.4147896 -0.0 -0.0 -0.0 4.57875095" Properties=species:S:1:pos:R:3:forces:R:3 energy=-15.39787076 stress="-8.459123559818706e-06 -0.0 0.0 -0.0 -4.45476479143491e-06 0.0 0.0 0.0 -6.679962658958305e-06" free_energy=-15.39789357 pbc="T T T"
P        0.00000000       4.17264205       2.68624769      -0.00000000      -0.00236295       0.00019800
P        0.00000000       6.30337145       1.89250326       0.00000000       0.00236295      -0.00019800
P        1.66109219       6.30337145       0.39687221      -0.00000000       0.00236295       0.00019800
P        1.66109219       4.17264205       4.18187874       0.00000000      -0.00236295      -0.00019800
4
Lattice="3.32222066 0.0 -0.0 0.0 35.38723093 -0.0 -0.0 -0.0 4.57835572" Properties=species:S:1:pos:R:3:forces:R:3 energy=-15.39788339 stress="-1.0191622938454004e-05 -0.0 -0.0 -0.0 -1.6737636570061727e-05 0.0 -0.0 0.0 -1.1308559721058189e-05" free_energy=-15.397906 pbc="T T T"
P        0.00000000       4.16865119       2.68594677      -0.00000000      -0.00388863       0.00075387
P        0.00000000       6.29921020       1.89240895       0.00000000       0.00388863      -0.00075387
P        1.66111033       6.29921020       0.39676891      -0.00000000       0.00388863       0.00075387
P        1.66111033       4.16865119       4.18158681       0.00000000      -0.00388863      -0.00075387
4
Lattice="3.3222932 0.0 -0.0 0.0 35.33211358 -0.0 -0.0 -0.0 4.57756527" Properties=species:S:1:pos:R:3:forces:R:3 energy=-15.39790873 stress="-1.3732911661770267e-05 -0.0 -0.0 -0.0 -4.1470552707743025e-05 -0.0 -0.0 -0.0 -2.055794571734148e-05" free_energy=-15.39793095 pbc="T T T"
P        0.00000000       4.16067189       2.68534490      -0.00000000      -0.00699565       0.00189176
P        0.00000000       6.29088530       1.89222037       0.00000000       0.00699565      -0.00189176
P        1.66114660       6.29088530       0.39656226      -0.00000000       0.00699565       0.00189176
P        1.66114660       4.16067189       4.18100301       0.00000000      -0.00699565      -0.00189176
4
Lattice="3.32243828 0.0 -0.0 0.0 35.22187888 -0.0 -0.0 -0.0 4.57598436" Properties=species:S:1:pos:R:3:forces:R:3 energy=-15.39794422 stress="-2.098365408878147e-05 -0.0 0.0 -0.0 -9.251165450535079e-05 -0.0 0.0 -0.0 -3.935614162720406e-05" free_energy=-15.39796568 pbc="T T T"
P        0.00000000       4.14472262       2.68414132      -0.00000000      -0.01352930       0.00420144
P        0.00000000       6.27422615       1.89184304       0.00000000       0.01352930      -0.00420144
P        1.66121914       6.27422615       0.39614914      -0.00000000       0.01352930       0.00420144
P        1.66121914       4.14472262       4.17983522       0.00000000      -0.01352930      -0.00420144
4
Lattice="3.32243913 0.0 -0.0 0.0 35.22156685 -0.0 -0.0 -0.0 4.57598064" Properties=species:S:1:pos:R:3:forces:R:3 energy=-15.39794818 stress="-2.096998518379579e-05 -0.0 0.0 -0.0 -9.253438608158725e-05 -0.0 0.0 -0.0 -3.937572748284108e-05" free_energy=-15.39796965 pbc="T T T"
P        0.00000000       4.14467639       2.68413846      -0.00000000      -0.01347903       0.00420073
P        0.00000000       6.27418007       1.89184218       0.00000000       0.01347903      -0.00420073
P        1.66121956       6.27418007       0.39614814      -0.00000000       0.01347903       0.00420073
P        1.66121956       4.14467639       4.17983250       0.00000000      -0.01347903      -0.00420073
4
Lattice="3.32244167 0.0 -0.0 0.0 35.22063074 -0.0 -0.0 -0.0 4.57596948" Properties=species:S:1:pos:R:3:forces:R:3 energy=-15.39794641 stress="-2.040965370201962e-05 -0.0 0.0 -0.0 -8.695203025147026e-05 -0.0 0.0 -0.0 -3.816908773107969e-05" free_energy=-15.39796787 pbc="T T T"
P        0.00000000       4.14453736       2.68412999      -0.00000000      -0.01337377       0.00417239
P        0.00000000       6.27404220       1.89183949       0.00000000       0.01337377      -0.00417239
P        1.66122083       6.27404220       0.39614525      -0.00000000       0.01337377       0.00417239
P        1.66122083       4.14453736       4.17982423       0.00000000      -0.01337377      -0.00417239
4
Lattice="3.32244675 0.0 -0.0 0.0 35.21875853 -0.0 -0.0 -0.0 4.57594717" Properties=species:S:1:pos:R:3:forces:R:3 energy=-15.39794681 stress="-2.0780611555407363e-05 -0.0 -0.0 -0.0 -9.2627241012853e-05 0.0 -0.0 0.0 -3.954872339128318e-05" free_energy=-15.39796827 pbc="T T T"
P        0.00000000       4.14425964       2.68411297      -0.00000000      -0.01351660       0.00423162
P        0.00000000       6.27376610       1.89183420       0.00000000       0.01351660      -0.00423162
P        1.66122338       6.27376610       0.39613938      -0.00000000       0.01351660       0.00423162
P        1.66122338       4.14425964       4.17980779       0.00000000      -0.01351660      -0.00423162
4
Lattice="3.32245691 0.0 -0.0 0.0 35.2150141 -0.0 -0.0 -0.0 4.57590253" Properties=species:S:1:pos:R:3:forces:R:3 energy=-15.39794072 stress="-2.0537211424025294e-05 -0.0 -0.0 -0.0 -9.281714516951713e-05 0.0 -0.0 0.0 -3.978686817198126e-05" free_energy=-15.39796217 pbc="T T T"
P        0.00000000       4.14370387       2.68407900      -0.00000000      -0.01359834       0.00425833
P        0.00000000       6.27321423       1.89182353       0.00000000       0.01359834      -0.00425833
P        1.66122846       6.27321423       0.39612774      -0.00000000       0.01359834       0.00425833
P        1.66122846       4.14370387       4.17977479       0.00000000      -0.01359834      -0.00425833
4
Lattice="3.32247724 0.0 -0.0 0.0 35.20752524 -0.0 -0.0 -0.0 4.57581326" Properties=species:S:1:pos:R:3:forces:R:3 energy=-15.39794861 stress="-2.0016401178034216e-05 -0.0 0.0 -0.0 -9.298345642168543e-05 -0.0 0.0 -0.0 -4.0235351810221604e-05" free_energy=-15.39797007 pbc="T T T"
P        0.00000000       4.14259241       2.68401099      -0.00000000      -0.01358157       0.00434314
P        0.00000000       6.27211042       1.89180227       0.00000000       0.01358157      -0.00434314
P        1.66123862       6.27211042       0.39610436      -0.00000000       0.01358157       0.00434314
P        1.66123862       4.14259241       4.17970890       0.00000000      -0.01358157      -0.00434314
4
Lattice="3.32251789 0.0 -0.0 0.0 35.19254753 -0.0 -0.0 -0.0 4.57563471" Properties=species:S:1:pos:R:3:forces:R:3 energy=-15.3979523 stress="-1.9030604743673963e-05 -0.0 -0.0 -0.0 -9.348306426117586e-05 0.0 -0.0 0.0 -4.116151686639316e-05" free_energy=-15.39797378 pbc="T T T"
P        0.00000000       4.14037014       2.68387501      -0.00000000      -0.01365730       0.00449863
P        0.00000000       6.26990216       1.89175970       0.00000000       0.01365730      -0.00449863
P        1.66125894       6.26990216       0.39605765      -0.00000000       0.01365730       0.00449863
P        1.66125894       4.14037014       4.17957706       0.00000000      -0.01365730      -0.00449863
4
Lattice="3.32259918 0.0 -0.0 0.0 35.16259211 -0.0 -0.0 -0.0 4.57527762" Properties=species:S:1:pos:R:3:forces:R:3 energy=-15.39795795 stress="-1.6926311149428055e-05 -0.0 -0.0 -0.0 -9.433818846047663e-05 0.0 -0.0 0.0 -4.302313434431561e-05" free_energy=-15.39797945 pbc="T T T"
P        0.00000000       4.13592606       2.68360305      -0.00000000      -0.01384469       0.00481518
P        0.00000000       6.26548515       1.89167457       0.00000000       0.01384469      -0.00481518
P        1.66129959       6.26548515       0.39596424      -0.00000000       0.01384469       0.00481518
P        1.66129959       4.13592606       4.17931338       0.00000000      -0.01384469      -0.00481518
4
Lattice="3.32276178 0.0 -0.0 0.0 35.10268126 -0.0 -0.0 -0.0 4.57456343" Properties=species:S:1:pos:R:3:forces:R:3 energy=-15.39796999 stress="-1.289834075202104e-05 -0.0 0.0 -0.0 -9.663973246762785e-05 -0.0 0.0 -0.0 -4.682420091896026e-05" free_energy=-15.39799152 pbc="T T T"
P        0.00000000       4.12704084       2.68305913      -0.00000000      -0.01433801       0.00544722
P        0.00000000       6.25664820       1.89150430       0.00000000       0.01433801      -0.00544722
P        1.66138089       6.25664820       0.39577741      -0.00000000       0.01433801       0.00544722
P        1.66138089       4.12704084       4.17878602       0.00000000      -0.01433801      -0.00544722
4
Lattice="3.32308697 0.0 -0.0 0.0 34.98285957 -0.0 -0.0 -0.0 4.57313506" Properties=species:S:1:pos:R:3:forces:R:3 energy=-15.39799631 stress="-4.987870810403977e-06 -0.0 0.0 -0.0 -0.00010268993933880278 0.0 0.0 0.0 -5.44516870783189e-05" free_energy=-15.39801787 pbc="T T T"
P        0.00000000       4.10928329       2.68197140      -0.00000000      -0.01550624       0.00675273
P        0.00000000       6.23896142       1.89116366       0.00000000       0.01550624      -0.00675273
P        1.66154348       6.23896142       0.39540387      -0.00000000       0.01550624       0.00675273
P        1.66154348       4.10928329       4.17773119       0.00000000      -0.01550624      -0.00675273
4
Lattice="3.32373735 0.0 -0.0 0.0 34.74321619 -0.0 -0.0 -0.0 4.57027831" Properties=species:S:1:pos:R:3:forces:R:3 energy=-15.39805294 stress="1.0000582827128968e-05 -0.0 -0.0 -0.0 -0.00012164827364830814 0.0 -0.0 0.0 -7.136359282468442e-05" free_energy=-15.39807442 pbc="T T T"
P        0.00000000       4.07381894       2.67979622      -0.00000000      -0.01826058       0.00955050
P        0.00000000       6.20353710       1.89048209       0.00000000       0.01826058      -0.00955050
P        1.66186868       6.20353710       0.39465706      -0.00000000       0.01826058       0.00955050
P        1.66186868       4.07381894       4.17562125       0.00000000      -0.01826058      -0.00955050
4
Lattice="3.32503811 0.0 -0.0 0.0 34.26392943 -0.0 -0.0 -0.0 4.56456482" Properties=species:S:1:pos:R:3:forces:R:3 energy=-15.39816902 stress="3.848430266646418e-05 -0.0 0.0 -0.0 -0.00018487997275362566 0.0 0.0 0.0 -0.00010961871351755528" free_energy=-15.39818999 pbc="T T T"
P        0.00000000       4.00309257       2.67544714      -0.00000000      -0.02621703       0.01566774
P        0.00000000       6.13248614       1.88911768       0.00000000       0.02621703      -0.01566774
P        1.66251905       6.13248614       0.39316473      -0.00000000       0.02621703       0.01566774
P        1.66251905       4.00309257       4.17140009       0.00000000      -0.02621703      -0.01566774
4
Lattice="3.32763963 0.0 -0.0 0.0 33.3053559 -0.0 -0.0 -0.0 4.55313783" Properties=species:S:1:pos:R:3:forces:R:3 energy=-15.39801229 stress="8.746541934311068e-05 -0.0 0.0 -0.0 -0.0004181326086667611 0.0 0.0 0.0 -0.0002056509848679974" free_energy=-15.3980306 pbc="T T T"
P        0.00000000       3.86246475       2.66675398      -0.00000000      -0.05100987       0.03015528
P        0.00000000       5.98955927       1.88638385       0.00000000       0.05100987      -0.03015528
P        1.66381982       5.98955927       0.39018506      -0.00000000       0.05100987       0.03015528
P        1.66381982       3.86246475       4.16295277       0.00000000      -0.05100987      -0.03015528
4
Lattice="3.3261202 0.0 -0.0 0.0 33.86521429 -0.0 -0.0 -0.0 4.5598118" Properties=species:S:1:pos:R:3:forces:R:3 energy=-15.39817609 stress="5.571593595931218e-05 -0.0 -0.0 -0.0 -0.00031364367291109583 0.0 -0.0 0.0 -0.00015419308133247228" free_energy=-15.39819535 pbc="T T T"
P        0.00000000       3.94488837       2.67183299      -0.00000000      -0.04076416       0.02237637
P        0.00000000       6.07274680       1.88797881       0.00000000       0.04076416      -0.02237637
P        1.66306010       6.07274680       0.39192709      -0.00000000       0.04076416       0.02237637
P        1.66306010       3.94488837       4.16788471       0.00000000      -0.04076416      -0.02237637
4
Lattice="3.32620071 0.0 -0.0 0.0 33.83218779 -0.0 -0.0 -0.0 4.55945095" Properties=species:S:1:pos:R:3:forces:R:3 energy=-15.3981738 stress="5.820242212337243e-05 -0.0 -0.0 -0.0 -0.00030818430601830437 0.0 -0.0 0.0 -0.00015570277131833182" free_energy=-15.39819322 pbc="T T T"
P        0.00000000       3.93993217       2.67156232      -0.00000000      -0.03993023       0.02246081
P        0.00000000       6.06793347       1.88788863       0.00000000       0.03993023      -0.02246081
P        1.66310036       6.06793347       0.39183684      -0.00000000       0.03993023       0.02246081
P        1.66310036       3.93993217       4.16761411       0.00000000      -0.03993023      -0.02246081
4
Lattice="3.32644226 0.0 -0.0 0.0 33.73310829 -0.0 -0.0 -0.0 4.5583684" Properties=species:S:1:pos:R:3:forces:R:3 energy=-15.39819062 stress="6.544163648302813e-05 -0.0 0.0 -0.0 -0.0002930403139733544 -0.0 0.0 -0.0 -0.00016050922642448285" free_energy=-15.39821043 pbc="T T T"
P        0.00000000       3.92507384       2.67075042      -0.00000000      -0.03770130       0.02271379
P        0.00000000       6.05348319       1.88761798       0.00000000       0.03770130      -0.02271379
P        1.66322113       6.05348319       0.39156622      -0.00000000       0.03770130       0.02271379
P        1.66322113       3.92507384       4.16680218       0.00000000      -0.03770130      -0.02271379
4
Lattice="3.32692534 0.0 -0.0 0.0 33.53494928 -0.0 -0.0 -0.0 4.55620331" Properties=species:S:1:pos:R:3:forces:R:3 energy=-15.39820184 stress="7.964674327620797e-05 -0.0 0.0 -0.0 -0.00026764907466062063 0.0 0.0 0.0 -0.00017086091286447013" free_energy=-15.39822239 pbc="T T T"
P        0.00000000       3.89539657       2.66912682      -0.00000000      -0.03376503       0.02339587
P        0.00000000       6.02454324       1.88707649       0.00000000       0.03376503      -0.02339587
P        1.66346267       6.02454324       0.39102517      -0.00000000       0.03376503       0.02339587
P        1.66346267       3.89539657       4.16517814       0.00000000      -0.03376503      -0.02339587
4
Lattice="3.3278915 0.0 -0.0 0.0 33.13863126 -0.0 -0.0 -0.0 4.55187312" Properties=species:S:1:pos:R:3:forces:R:3 energy=-15.39815372 stress="0.00010644476257233376 -0.0 0.0 -0.0 -0.00023332702846040683 0.0 0.0 0.0 -0.00019507647031070697" free_energy=-15.39817548 pbc="T T T"
P        0.00000000       3.83619920       2.66588028      -0.00000000      -0.02900173       0.02510980
P        0.00000000       5.96650617       1.88599284       0.00000000       0.02900173      -0.02510980
P        1.66394575       5.96650617       0.38994372      -0.00000000       0.02900173       0.02510980
P        1.66394575       3.83619920       4.16192940       0.00000000      -0.02900173      -0.02510980
4
Lattice="3.32770366 0.0 -0.0 0.0 33.15764776 -0.0 -0.0 -0.0 4.55242125" Properties=species:S:1:pos:R:3:forces:R:3 energy=-15.39818945 stress="0.00010110276725865454 -0.0 0.0 -0.0 -0.00020882638384333614 0.0 0.0 0.0 -0.0001913644263807248" free_energy=-15.39821167 pbc="T T T"
P        0.00000000       3.83884557       2.66631411      -0.00000000      -0.02606677       0.02369488
P        0.00000000       5.96948506       1.88610714       0.00000000       0.02606677      -0.02369488
P        1.66385183       5.96948506       0.39010349      -0.00000000       0.02606677       0.02369488
P        1.66385183       3.83884557       4.16231776       0.00000000      -0.02606677      -0.02369488
4
Lattice="3.32714012 0.0 -0.0 0.0 33.21469727 -0.0 -0.0 -0.0 4.55406566" Properties=species:S:1:pos:R:3:forces:R:3 energy=-15.39826368 stress="8.508139379286092e-05 -0.0 0.0 -0.0 -0.00013594119223338003 0.0 0.0 0.0 -0.00018050948705991752" free_energy=-15.39828729 pbc="T T T"
P        0.00000000       3.84678740       2.66761573      -0.00000000      -0.01741680       0.01950839
P        0.00000000       5.97841898       1.88644993       0.00000000       0.01741680      -0.01950839
P        1.66357006       5.97841898       0.39058290      -0.00000000       0.01741680       0.01950839
P        1.66357006       3.84678740       4.16348276       0.00000000      -0.01741680      -0.01950839
4
Lattice="3.32601304 0.0 -0.0 0.0 33.3287963 -0.0 -0.0 -0.0 4.55735447" Properties=species:S:1:pos:R:3:forces:R:3 energy=-15.39833667 stress="5.290219498876363e-05 -0.0 0.0 -0.0 6.494221588881146e-06 0.0 0.0 0.0 -0.0001589813424395214" free_energy=-15.39836328 pbc="T T T"
P        0.00000000       3.86268018       2.67021943      -0.00000000      -0.00056642       0.01119372
P        0.00000000       5.99627773       1.88713504       0.00000000       0.00056642      -0.01119372
P        1.66300652       5.99627773       0.39154219      -0.00000000       0.00056642       0.01119372
P        1.66300652       3.86268018       4.16581228       0.00000000      -0.00056642      -0.01119372
4
Lattice="3.32375889 0.0 -0.0 0.0 33.55699435 -0.0 -0.0 -0.0 4.5639321" Properties=species:S:1:pos:R:3:forces:R:3 energy=-15.3981886 stress="-1.2144547453378993e-05 -0.0 -0.0 -0.0 0.0002790635465500359 -0.0 -0.0 -0.0 -0.00011803840946422579" free_energy=-15.39822215 pbc="T T T"
P        0.00000000       3.89450228       2.67542880       0.00000000       0.03168892      -0.00535821
P        0.00000000       6.03195866       1.88850330      -0.00000000      -0.03168892       0.00535821
P        1.66187945       6.03195866       0.39346275       0.00000000      -0.03168892      -0.00535821
P        1.66187945       3.89450228       4.17046935      -0.00000000       0.03168892       0.00535821
4
Lattice="3.32512863 0.0 -0.0 0.0 33.418329 -0.0 -0.0 -0.0 4.55993518" Properties=species:S:1:pos:R:3:forces:R:3 energy=-15.39832395 stress="2.731208247075178e-05 -0.0 0.0 -0.0 0.00011306670416245784 -0.0 0.0 -0.0 -0.00014305544533882642" free_energy=-15.39835308 pbc="T T T"
P        0.00000000       3.87517874       2.67226401      -0.00000000       0.01200905       0.00470383
P        0.00000000       6.01026375       1.88767117       0.00000000      -0.01200905      -0.00470383
P        1.66256432       6.01026375       0.39229642      -0.00000000      -0.01200905       0.00470383
P        1.66256432       3.87517874       4.16763876       0.00000000       0.01200905      -0.00470383
4