4
Lattice="1.655059 5.402797 0.0 -1.655059 5.402797 0.0 0.0 0.0 4.472838" Properties=species:S:1:pos:R:3:forces:R:3 energy=-15.83466498 stress="-0.012665111378212418 -0.0 -0.0 -0.0 -0.0070987440038421026 -0.0 -0.0 -0.0 -0.008336875021513234" free_energy=-15.83546488 pbc="T T T"
P        0.00000000       1.06668502       0.37328070       0.00000000       0.18402012      -0.10640177
P        0.00000000       6.46949282       1.86315172       0.00000000       0.18402012       0.10640177
P        0.00000000       4.33611198       2.60969075       0.00000000      -0.18402012      -0.10640177
P        0.00000000       9.73890898       4.09956178       0.00000000      -0.18402012       0.10640177
4
Lattice="1.67528168 5.43979826 0.0 -1.67528168 5.43979826 0.0 0.0 0.0 4.50881316" Properties=species:S:1:pos:R:3:forces:R:3 energy=-15.83622305 stress="0.0068342602980516545 -0.0 -0.0 -0.0 0.006926649119657407 -0.0 -0.0 -0.0 0.007770255756062523" free_energy=-15.83692143 pbc="T T T"
P        0.00000000       1.08292871       0.37110860       0.00000000      -0.05715315       0.10841546
P        0.00000000       6.52273785       1.88331151       0.00000000      -0.05715315      -0.10841546
P        0.00000000       4.35686955       2.62550616       0.00000000       0.05715315       0.10841546
P        0.00000000       9.79666781       4.13770907       0.00000000       0.05715315      -0.10841546
4
Lattice="1.66934498 5.4202606 0.0 -1.66934498 5.4202606 0.0 0.0 0.0 4.49064697" Properties=species:S:1:pos:R:3:forces:R:3 energy=-15.84191965 stress="0.0005854763125501225 -0.0 -0.0 -0.0 0.00224388608804246 -0.0 -0.0 -0.0 0.0011170827340535863" free_energy=-15.84266699 pbc="T T T"
P        0.00000000       1.07760190       0.37233863       0.00000000       0.01775947       0.00058402
P        0.00000000       6.49787334       1.87299833       0.00000000       0.01775947      -0.00058402
P        0.00000000       4.34265870       2.61765313       0.00000000      -0.01775947       0.00058402
P        0.00000000       9.76291930       4.11831284       0.00000000      -0.01775947      -0.00058402
4
Lattice="1.6697131 5.41009314 0.0 -1.6697131 5.41009314 0.0 0.0 0.0 4.48919676" Properties=species:S:1:pos:R:3:forces:R:3 energy=-15.84236181 stress="0.0007317889518413824 -0.0 -0.0 -0.0 0.0014409461978338214 -0.0 -0.0 -0.0 0.0013521555188580117" free_energy=-15.8431182 pbc="T T T"
P        0.00000000       1.07707965       0.37151551       0.00000000       0.02487765       0.01201911
P        0.00000000       6.48718361       1.87309634       0.00000000       0.02487765      -0.01201911
P        0.00000000       4.33301349       2.61610491       0.00000000      -0.02487765       0.01201911
P        0.00000000       9.74310663       4.11768574       0.00000000      -0.02487765      -0.01201911
4
Lattice="1.669436 5.40026292 0.0 -1.669436 5.40026292 0.0 0.0 0.0 4.48406845" Properties=species:S:1:pos:R:3:forces:R:3 energy=-15.84293686 stress="0.00012638806319548564 -0.0 -0.0 -0.0 0.0013696531153377322 -0.0 -0.0 -0.0 0.0004665824980186854" free_energy=-15.84372631 pbc="T T T"
P        0.00000000       1.07777076       0.37112007       0.00000000       0.01650607      -0.00677784
P        0.00000000       6.47804448       1.87092761       0.00000000       0.01650607       0.00677784
P        0.00000000       4.32249216       2.61314533       0.00000000      -0.01650607      -0.00677784
P        0.00000000       9.72275508       4.11295287       0.00000000      -0.01650607       0.00677784
4
Lattice="1.67009664 5.37507192 0.0 -1.67009664 5.37507192 0.0 0.0 0.0 4.4769951" Properties=species:S:1:pos:R:3:forces:R:3 energy=-15.84366646 stress="0.0001275677146617867 -0.0 -0.0 -0.0 0.0005596028604838322 -0.0 -0.0 -0.0 0.00037231334064914104" free_energy=-15.84451337 pbc="T T T"
P        0.00000000       1.07849431       0.36915887       0.00000000       0.00764529      -0.00174342
P        0.00000000       6.45357698       1.86935211       0.00000000       0.00764529       0.00174342
P        0.00000000       4.29657761       2.60764746       0.00000000      -0.00764529      -0.00174342
P        0.00000000       9.67164953       4.10784071       0.00000000      -0.00764529       0.00174342
4
Lattice="1.6705274 5.35572863 0.0 -1.6705274 5.35572863 0.0 0.0 0.0 4.47065605" Properties=species:S:1:pos:R:3:forces:R:3 energy=-15.84386029 stress="-3.3779047389280194e-06 -0.0 -0.0 -0.0 -0.00010215983548572326 -0.0 -0.0 -0.0 0.0001334986712596025" free_energy=-15.84475717 pbc="T T T"
P        0.00000000       1.07910691       0.36755825       0.00000000       0.00025143      -0.00040313
P        0.00000000       6.43484625       1.86778319       0.00000000       0.00025143       0.00040313
P        0.00000000       4.27662172       2.60287733       0.00000000      -0.00025143      -0.00040313
P        0.00000000       9.63235035       4.10310227       0.00000000      -0.00025143       0.00040313
4
Lattice="1.67045657 5.35814326 0.0 -1.67045657 5.35814326 0.0 0.0 0.0 4.47070904" Properties=species:S:1:pos:R:3:forces:R:3 energy=-15.84386352 stress="-4.637777697873146e-05 -0.0 -0.0 -0.0 1.231379845634557e-05 -0.0 -0.0 -0.0 5.954806028336723e-05" free_energy=-15.84475537 pbc="T T T"
P        0.00000000       1.07911430       0.36766338       0.00000000       0.00056535      -0.00225025
P        0.00000000       6.43726828       1.86770456       0.00000000       0.00056535       0.00225025
P        0.00000000       4.27902896       2.60300896       0.00000000      -0.00056535      -0.00225025
P        0.00000000       9.63717222       4.10305013       0.00000000      -0.00056535       0.00225025
4
Lattice="1.67053143 5.35798411 0.0 -1.67053143 5.35798411 0.0 0.0 0.0 4.4704326" Properties=species:S:1:pos:R:3:forces:R:3 energy=-15.84386019 stress="1.1820169982597715e-07 -0.0 -0.0 -0.0 5.470894960146956e-06 -0.0 -0.0 -0.0 0.00010030397892072401" free_energy=-15.84475219 pbc="T T T"
P        0.00000000       1.07913379       0.36753152       0.00000000       0.00060094      -0.00070116
P        0.00000000       6.43712862       1.86769819       0.00000000       0.00060094       0.00070116
P        0.00000000       4.27885032       2.60273888       0.00000000      -0.00060094      -0.00070116
P        0.00000000       9.63683443       4.10290555       0.00000000      -0.00060094       0.00070116
4
Lattice="1.67053146 5.35796851 0.0 -1.67053146 5.35796851 0.0 0.0 0.0 4.47046917" Properties=species:S:1:pos:R:3:forces:R:3 energy=-15.84386053 stress="-1.5625742926831255e-06 -0.0 -0.0 -0.0 5.3158558734600165e-06 -0.0 -0.0 -0.0 0.00010092109565252746" free_energy=-15.84475249 pbc="T T T"
P        0.00000000       1.07913258       0.36753752       0.00000000       0.00055260      -0.00068022
P        0.00000000       6.43711180       1.86771047       0.00000000       0.00055260       0.00068022
P        0.00000000       4.27883593       2.60276317       0.00000000      -0.00055260      -0.00068022
P        0.00000000       9.63680444       4.10293612       0.00000000      -0.00055260       0.00068022
4
Lattice="1.67051331 5.35816678 0.0 -1.67051331 5.35816678 0.0 0.0 0.0 4.47019203" Properties=species:S:1:pos:R:3:forces:R:3 energy=-15.84386341 stress="-2.4958421862399455e-05 -0.0 -0.0 -0.0 1.4929446410256844e-05 -0.0 -0.0 -0.0 7.40096244450205e-05" free_energy=-15.84475549 pbc="T T T"
P        0.00000000       1.07915322       0.36748291       0.00000000       0.00060472      -0.00085375
P        0.00000000       6.43733072       1.86762652       0.00000000       0.00060472       0.00085375
P        0.00000000       4.27901356       2.60256998       0.00000000      -0.00060472      -0.00085375
P        0.00000000       9.63718034       4.10271359       0.00000000      -0.00060472       0.00085375
4
Lattice="1.67056161 5.35832301 0.0 -1.67056161 5.35832301 0.0 0.0 0.0 4.46953342" Properties=species:S:1:pos:R:3:forces:R:3 energy=-15.84386594 stress="-2.479872036839548e-05 -0.0 -0.0 -0.0 2.535457668812839e-05 -0.0 -0.0 -0.0 3.95081660649832e-05" free_energy=-15.84475812 pbc="T T T"
P        0.00000000       1.07919744       0.36732427       0.00000000       0.00061018      -0.00058797
P        0.00000000       6.43753117       1.86745585       0.00000000       0.00061018       0.00058797
P        0.00000000       4.27912557       2.60208204       0.00000000      -0.00061018      -0.00058797
P        0.00000000       9.63744858       4.10221362       0.00000000      -0.00061018       0.00058797
