4
Lattice="3.148625 0.0 -1.008229 0.0 4.552418 0.0 0.136678 0.0 5.847409" Properties=species:S:1:pos:R:3:forces:R:3 energy=-15.81135811 stress="-0.00845991911505491 0.0 0.0022530511138013983 0.0 -0.0045652905085756205 0.0 0.0022530511138013983 0.0 -0.002145260513340778" free_energy=-15.81175304 pbc="T T T"
P        1.38763396       4.15855645       4.33348181      -0.06605479       0.13380352      -0.20628413
P        1.89766904       0.39386155       0.50569819       0.06605479      -0.13380352       0.20628413
P        0.32335654       1.88234745       1.00981269       0.06605479       0.13380352       0.20628413
P        2.96194646       2.67007055       3.82936731      -0.06605479      -0.13380352      -0.20628413
4
Lattice="3.17806682 -0.0 -1.01765664 0.0 4.57358438 -0.0 0.12443814 -0.0 5.85987093" Properties=species:S:1:pos:R:3:forces:R:3 energy=-15.8157326 stress="0.005298845139658151 0.0 0.0006180992888945794 0.0 0.007678949773875018 -0.0 0.0006180992888945794 -0.0 0.007031196600768674" free_energy=-15.81609546 pbc="T T T"
P        1.38645484       4.18437665       4.32979953      -0.01383263      -0.06483174      -0.04319825
P        1.91605012       0.38920773       0.51241476       0.01383263       0.06483174       0.04319825
P        0.32701671       1.89758446       1.02124308       0.01383263      -0.06483174       0.04319825
P        2.97548825       2.67599992       3.82097121      -0.01383263       0.06483174      -0.04319825
4
Lattice="3.16655964 -0.0 -1.01397189 0.0 4.56531161 -0.0 0.12922203 -0.0 5.85500025" Properties=species:S:1:pos:R:3:forces:R:3 energy=-15.81749207 stress="0.00013129493170045388 0.0 0.0012122836363884608 0.0 0.003047270766915937 -0.0 0.0012122836363884608 -0.0 0.003528977022006986" free_energy=-15.81786785 pbc="T T T"
P        1.38691500       4.17428952       4.33123653      -0.03385032       0.01045506      -0.10571199
P        1.90886667       0.39102209       0.50979183       0.03385032      -0.01045506       0.10571199
P        0.32558685       1.89163372       1.01677777       0.03385032       0.01045506       0.10571199
P        2.97019482       2.67367789       3.82425059      -0.03385032      -0.01045506      -0.10571199
4
Lattice="3.17005987 -0.0 -1.01509271 0.0 4.567828 -0.0 0.12776687 -0.0 5.8564818" Properties=species:S:1:pos:R:3:forces:R:3 energy=-15.81741671 stress="0.0017309255821092056 -0.0 0.0010256388332389279 -0.0 0.0044763199056162386 -0.0 0.0010256388332389279 -0.0 0.004605495089745851" free_energy=-15.81778861 pbc="T T T"
P        1.38677497       4.17735823       4.33079920      -0.02770955      -0.01270785      -0.08653485
P        1.91105177       0.39046977       0.51058989       0.02770955       0.01270785       0.08653485
P        0.32602184       1.89344423       1.01813625       0.02770955      -0.01270785       0.08653485
P        2.97180490       2.67438377       3.82325284      -0.02770955       0.01270785      -0.08653485
4
Lattice="3.17313472 0.0 -1.01607732 0.0 4.5532198 -0.0 0.11861956 -0.0 5.83320898" Properties=species:S:1:pos:R:3:forces:R:3 energy=-15.82243906 stress="0.0020083917704362 0.0 0.0010594670574786108 0.0 0.0032831950059122976 -0.0 0.0010594670574786108 -0.0 0.004977771917566606" free_energy=-15.82286817 pbc="T T T"
P        1.37856258       4.16502826       4.30515262      -0.02183302       0.01237580      -0.06818287
P        1.91319170       0.38819154       0.51197904       0.02183302      -0.01237580       0.06818287
P        0.32662434       1.88841836       1.02001770       0.02183302       0.01237580       0.06818287
P        2.96512994       2.66480144       3.79711396      -0.02183302      -0.01237580      -0.06818287
4
Lattice="3.18235926 0.0 -1.01903114 -0.0 4.50939521 -0.0 0.09117761 -0.0 5.76339051" Properties=species:S:1:pos:R:3:forces:R:3 energy=-15.83365241 stress="0.0026651558477166367 -0.0 0.0010741111857821963 -0.0 -0.0003980424078848224 0.0 0.0010741111857821963 0.0 0.005675578910557025" free_energy=-15.83425829 pbc="T T T"
P        1.35400820       4.12800860       4.22847117      -0.00489765       0.08719718      -0.01529498
P        1.91952867       0.38138661       0.51588820       0.00489765      -0.08719718       0.01529498
P        0.32834904       1.87331100       1.02540377       0.00489765       0.08719718       0.01529498
P        2.94518783       2.63608421       3.71895560      -0.00489765      -0.08719718      -0.01529498
4
Lattice="3.20080836 0.0 -1.02493879 -0.0 4.42174601 -0.0 0.0362937 -0.0 5.62375359" Properties=species:S:1:pos:R:3:forces:R:3 energy=-15.83676397 stress="0.002994748848353686 -0.0 0.0006928232041269842 -0.0 -0.008280775713338883 0.0 0.0006928232041269842 0.0 0.0049365312583644965" free_energy=-15.83764733 pbc="T T T"
P        1.30523494       4.05384883       4.07615592       0.02796016       0.23437455       0.08731747
P        1.93186712       0.36789718       0.52265888      -0.02796016      -0.23437455      -0.08731747
P        0.33146294       1.84297582       1.03512828      -0.02796016       0.23437455      -0.08731747
P        2.90563912       2.57877019       3.56368652       0.02796016      -0.23437455       0.08731747
4
Lattice="3.19298026 0.0 -1.02243213 -0.0 4.45893627 -0.0 0.05958138 -0.0 5.68300265" Properties=species:S:1:pos:R:3:forces:R:3 energy=-15.83891578 stress="0.0029816907811416244 -0.0 0.0008649408323709326 -0.0 -0.004912271511033648 -0.0 0.0008649408323709326 -0.0 0.005405869382662259" free_energy=-15.8396968 pbc="T T T"
P        1.32599191       4.08529328       4.14097835       0.01257653       0.17231066       0.03927555
P        1.92656973       0.37364299       0.51959217      -0.01257653      -0.17231066      -0.03927555
P        0.33007960       1.85582515       1.03080824      -0.01257653       0.17231066      -0.03927555
P        2.92248204       2.60311112       3.62976228       0.01257653      -0.17231066       0.03927555
4
Lattice="3.19226247 0.0 -1.02220228 -0.0 4.45556193 -0.0 0.05045298 -0.0 5.65325961" Properties=species:S:1:pos:R:3:forces:R:3 energy=-15.84250926 stress="0.0025653235521235743 -0.0 0.0001615464528940404 -0.0 -0.0031596091868275502 -0.0 0.0001615464528940404 -0.0 0.0030180903760694796" free_energy=-15.84330253 pbc="T T T"
P        1.31696465       4.08621144       4.11278695       0.00510437       0.09725193       0.01594058
P        1.92575080       0.36935049       0.51827038      -0.00510437      -0.09725193      -0.01594058
P        0.32961957       1.85843048       1.02937152      -0.00510437       0.09725193      -0.01594058
P        2.91309588       2.59713145       3.60168581       0.00510437      -0.09725193       0.01594058
4
Lattice="3.19174651 0.0 -1.02203707 -0.0 4.45313641 -0.0 0.04389135 -0.0 5.6318799" Properties=species:S:1:pos:R:3:forces:R:3 energy=-15.84393128 stress="0.002227393405739553 -0.0 -0.0003625158128384044 -0.0 -0.001902711942256298 -0.0 -0.0003625158128384044 -0.0 0.0012113647177243844" free_energy=-15.8447447 pbc="T T T"
P        1.31048001       4.08686986       4.09253587      -0.00033863       0.04377168      -0.00105752
P        1.92515785       0.36626655       0.51730696       0.00033863      -0.04377168       0.00105752
P        0.32928460       1.86030165       1.02832550       0.00033863       0.04377168       0.00105752
P        2.90635326       2.59283476       3.58151733      -0.00033863      -0.04377168      -0.00105752
4
Lattice="3.1907146 0.0 -1.02170664 -0.0 4.44828536 -0.0 0.0307681 -0.0 5.58912048" Properties=species:S:1:pos:R:3:forces:R:3 energy=-15.84378049 stress="0.0014533949439589778 -0.0 -0.0014642388545331594 -0.0 0.0005978529817278932 -0.0 -0.0014642388545331594 -0.0 -0.0026504459276653555" free_energy=-15.84465746 pbc="T T T"
P        1.29752796       4.08818042       4.05208754      -0.01148850      -0.06190974      -0.03587771
P        1.92395474       0.36010494       0.51532630       0.01148850       0.06190974       0.03587771
P        0.32859744       1.86403774       1.02617962       0.01148850      -0.06190974       0.03587771
P        2.89288526       2.58424762       3.54123422      -0.01148850       0.06190974      -0.03587771
4
Lattice="3.19131918 0.0 -1.02190023 -0.0 4.45112751 -0.0 0.03845681 -0.0 5.61417256" Properties=species:S:1:pos:R:3:forces:R:3 energy=-15.84435852 stress="0.0019180146184292644 -0.0 -0.0008140232125898714 -0.0 -0.0008706645833487873 0.0 -0.0008140232125898714 0.0 -0.00036345921070127257" free_energy=-15.84519483 pbc="T T T"
P        1.30512233       4.08741044       4.07580419      -0.00502981      -0.00018669      -0.01570773
P        1.92465366       0.36371707       0.51646814       0.00502981       0.00018669       0.01570773
P        0.32899407       1.86184668       1.02741826       0.00502981      -0.00018669       0.01570773
P        2.90078192       2.58928083       3.56485407      -0.00502981       0.00018669      -0.01570773
4
Lattice="3.18807619 0.0 -1.02086179 -0.0 4.45288131 -0.0 0.04041882 -0.0 5.61471673" Properties=species:S:1:pos:R:3:forces:R:3 energy=-15.84458079 stress="0.0011024516130550195 -0.0 -0.00042235492717532984 -0.0 -0.0008161567164468263 -0.0 -0.00042235492717532984 -0.0 -8.128828514235177e-05" free_energy=-15.8454338 pbc="T T T"
P        1.30525667       4.08907387       4.07622371      -0.00259313      -0.00184290      -0.00809816
P        1.92323834       0.36380744       0.51763123       0.00259313       0.00184290       0.00809816
P        0.32920024       1.86263322       1.02806213       0.00259313      -0.00184290       0.00809816
P        2.89929477       2.59024809       3.56579281      -0.00259313       0.00184290      -0.00809816
4
Lattice="3.18703601 0.0 -1.02052871 -0.0 4.45344383 -0.0 0.04104813 -0.0 5.61489128" Properties=species:S:1:pos:R:3:forces:R:3 energy=-15.84463122 stress="0.0008394696206017688 -0.0 -0.0002964667214796997 -0.0 -0.0007985129438233781 -0.0 -0.0002964667214796997 -0.0 8.558282415301612e-06" free_energy=-15.84548948 pbc="T T T"
P        1.30529976       4.08960744       4.07635827      -0.00181681      -0.00237991      -0.00567377
P        1.92278438       0.36383639       0.51800430       0.00181681       0.00237991       0.00567377
P        0.32926637       1.86288553       1.02826865       0.00181681      -0.00237991       0.00567377
P        2.89881777       2.59055830       3.56609392      -0.00181681       0.00237991      -0.00567377
4
Lattice="3.18495563 0.0 -1.01986255 -0.0 4.45456889 -0.0 0.04230675 -0.0 5.61524036" Properties=species:S:1:pos:R:3:forces:R:3 energy=-15.84470171 stress="0.00031098313602355123 0.0 -4.422415673786369e-05 0.0 -0.0007627644131954619 -0.0 -4.422415673786369e-05 -0.0 0.0001870353905491217" free_energy=-15.84557029 pbc="T T T"
P        1.30538591       4.09067458       4.07662733      -0.00027294      -0.00346185      -0.00085236
P        1.92187647       0.36389431       0.51875048       0.00027294       0.00346185       0.00085236
P        0.32939865       1.86339013       1.02868175       0.00027294      -0.00346185       0.00085236
P        2.89786373       2.59117876       3.56669606      -0.00027294       0.00346185      -0.00085236
4
Lattice="3.18079489 0.0 -1.01853022 -0.0 4.456819 -0.0 0.044824 -0.0 5.61593853" Properties=species:S:1:pos:R:3:forces:R:3 energy=-15.84472047 stress="-0.0007539875718550992 -0.0 0.00046179005510052197 -0.0 -0.0006900000946512377 -0.0 0.00046179005510052197 -0.0 0.0005402774505396153" free_energy=-15.84560898 pbc="T T T"
P        1.30555817       4.09280884       4.07716536       0.00278390      -0.00565689       0.00869390
P        1.92006072       0.36401016       0.52024295      -0.00278390       0.00565689      -0.00869390
P        0.32966328       1.86439934       1.02950806      -0.00278390      -0.00565689      -0.00869390
P        2.89595561       2.59241966       3.56790025       0.00278390       0.00565689       0.00869390
4
Lattice="3.18339432 0.0 -1.0193626 -0.0 4.45541324 -0.0 0.04325135 -0.0 5.61550235" Properties=species:S:1:pos:R:3:forces:R:3 energy=-15.84472784 stress="-8.738753779223789e-05 -0.0 0.00014547916064560764 -0.0 -0.0007356398381418699 0.0 0.00014547916064560764 0.0 0.0003203487326782494" free_energy=-15.84560402 pbc="T T T"
P        1.30545055       4.09147548       4.07682915       0.00087856      -0.00428248       0.00274367
P        1.92119512       0.36393776       0.51931060      -0.00087856       0.00428248      -0.00274367
P        0.32949796       1.86376886       1.02899190      -0.00087856      -0.00428248      -0.00274367
P        2.89714771       2.59164438       3.56714785       0.00087856       0.00428248       0.00274367
4
Lattice="3.18316992 0.0 -1.01929074 -0.0 4.45763549 -0.0 0.04305496 -0.0 5.61450272" Properties=species:S:1:pos:R:3:forces:R:3 energy=-15.84475217 stress="-4.6884312893351643e-05 -0.0 9.285283411869894e-05 -0.0 -0.0004673221605406664 -0.0 9.285283411869894e-05 -0.0 0.00021335547876695122" free_energy=-15.84562683 pbc="T T T"
P        1.30521007       4.09339554       4.07607826       0.00046808      -0.00844123       0.00146177
P        1.92101481       0.36423995       0.51913372      -0.00046808       0.00844123      -0.00146177
P        0.32942985       1.86457780       1.02877909      -0.00046808      -0.00844123      -0.00146177
P        2.89679503       2.59305769       3.56643289       0.00046808       0.00844123       0.00146177
4
Lattice="3.18260391 0.0 -1.0191095 -0.0 4.46324091 -0.0 0.04255958 -0.0 5.61198126" Properties=species:S:1:pos:R:3:forces:R:3 energy=-15.84476822 stress="5.3440543875398436e-05 0.0 -3.9430502966929824e-05 0.0 0.0002096796106238626 -0.0 -3.9430502966929824e-05 -0.0 -5.7071835160309944e-05" free_energy=-15.84563877 pbc="T T T"
P        1.30460355       4.09823845       4.07418409      -0.00057136      -0.01890992      -0.00178431
P        1.92055994       0.36500246       0.51868767       0.00057136       0.01890992       0.00178431
P        0.32925799       1.86661800       1.02824242       0.00057136      -0.01890992       0.00178431
P        2.89590550       2.59662291       3.56462934      -0.00057136       0.01890992      -0.00178431
4
Lattice="3.18237739 0.0 -1.01903696 -0.0 4.46448519 -0.0 0.04249524 -0.0 5.61139036" Properties=species:S:1:pos:R:3:forces:R:3 energy=-15.8447963 stress="3.7741656703120956e-06 0.0 -3.1574440260363084e-05 0.0 0.00013584163392131306 -0.0 -3.1574440260363084e-05 -0.0 -8.471990430881715e-05" free_energy=-15.84566661 pbc="T T T"
P        1.30445638       4.09898234       4.07372455      -0.00047433      -0.01415890      -0.00148130
P        1.92041625       0.36550285       0.51862885       0.00047433       0.01415890       0.00148130
P        0.32922756       1.86673975       1.02814733       0.00047433      -0.01415890       0.00148130
P        2.89564507       2.59774544       3.56420607      -0.00047433       0.01415890      -0.00148130
4
Lattice="3.18171505 0.0 -1.01882487 -0.0 4.46812358 -0.0 0.04230709 -0.0 5.60966251" Properties=species:S:1:pos:R:3:forces:R:3 energy=-15.84484293 stress="-0.00014326212667202092 0.0 -7.363882262936089e-06 0.0 -7.95171133731725e-05 0.0 -7.363882262936089e-06 0.0 -0.00016390088744952435" free_energy=-15.84571267 pbc="T T T"
P        1.30402610       4.10115672       4.07238076      -0.00018476      -0.00025077      -0.00057700
P        1.91999604       0.36696686       0.51845688       0.00018476       0.00025077       0.00057700
P        0.32913851       1.86709493       1.02786931       0.00018476      -0.00025077       0.00057700
P        2.89488363       2.60102865       3.56296833      -0.00018476       0.00025077      -0.00057700
4
Lattice="3.18193057 0.0 -1.01889389 -0.0 4.46842314 -0.0 0.04232621 -0.0 5.61009328" Properties=species:S:1:pos:R:3:forces:R:3 energy=-15.84482658 stress="-3.556699009348072e-05 -0.0 -8.04689684809062e-06 -0.0 -1.6988701274650384e-05 -0.0 -8.04689684809062e-06 -0.0 -5.812009661800204e-05" free_energy=-15.84569535 pbc="T T T"
P        1.30412205       4.10138905       4.07268049       0.00031247      -0.00023800       0.00097583
P        1.92013473       0.36703409       0.51851890      -0.00031247       0.00023800      -0.00097583
P        0.32916944       1.86717748       1.02796584      -0.00031247      -0.00023800      -0.00097583
P        2.89508734       2.60124566       3.56323355       0.00031247       0.00023800       0.00097583
4
Lattice="3.18200899 0.0 -1.018919 -0.0 4.46853214 -0.0 0.04233317 -0.0 5.61025002" Properties=species:S:1:pos:R:3:forces:R:3 energy=-15.84482026 stress="3.501049713981696e-06 -0.0 -8.361369043889122e-06 -0.0 5.6201044773103205e-06 -0.0 -8.361369043889122e-06 -0.0 -1.9933470246278607e-05" free_energy=-15.84568869 pbc="T T T"
P        1.30415699       4.10147359       4.07278954       0.00049335      -0.00023388       0.00154069
P        1.92018517       0.36705855       0.51854148      -0.00049335       0.00023388      -0.00154069
P        0.32918067       1.86720752       1.02800098      -0.00049335      -0.00023388      -0.00154069
P        2.89516149       2.60132462       3.56333004       0.00049335       0.00023388       0.00154069
4
Lattice="3.18202795 0.0 -1.01892507 -0.0 4.46855973 -0.0 0.04236225 -0.0 5.61037347" Properties=species:S:1:pos:R:3:forces:R:3 energy=-15.84482073 stress="9.186097093746832e-06 -0.0 -1.1213900993655044e-05 -0.0 2.3732402224802207e-06 -0.0 -1.1213900993655044e-05 -0.0 -2.2243246803966848e-05" free_energy=-15.84568864 pbc="T T T"
P        1.30420098       4.10148636       4.07292685       0.00042643      -0.00012451       0.00133170
P        1.92018922       0.36707337       0.51852155      -0.00042643       0.00012451      -0.00133170
P        0.32917525       1.86720650       1.02798409      -0.00042643      -0.00012451      -0.00133170
P        2.89521495       2.60135323       3.56346431       0.00042643       0.00012451       0.00133170
4
Lattice="3.1820848 0.0 -1.01894327 -0.0 4.46864249 -0.0 0.04244949 -0.0 5.61074379" Properties=species:S:1:pos:R:3:forces:R:3 energy=-15.84482202 stress="2.631468307092651e-05 -0.0 -1.98482736467103e-05 -0.0 -7.5402922768700544e-06 -0.0 -1.98482736467103e-05 -0.0 -2.9314333632298628e-05" free_energy=-15.84568837 pbc="T T T"
P        1.30433290       4.10152470       4.07333894       0.00023024       0.00019845       0.00071904
P        1.92020139       0.36711779       0.51846158      -0.00023024      -0.00019845      -0.00071904
P        0.32915899       1.86720345       1.02793322      -0.00023024       0.00019845      -0.00071904
P        2.89537530       2.60143904       3.56386730       0.00023024      -0.00019845       0.00071904
