4
Lattice="3.928446 0.0 0.0 0.0 3.928446 0.0 0.0 0.0 3.928446" Properties=species:S:1:pos:R:3:forces:R:3 energy=-12.15280582 stress="-0.01754267177857449 -0.0 0.0 -0.0 -0.01754267177857449 0.0 0.0 0.0 -0.01754267177857449" free_energy=-12.16620537 pbc="T T T"
P        0.00000000       0.00000000       0.00000000       0.00000000      -0.00000000       0.00000000
P        0.00000000       1.96422300       1.96422300      -0.00000000       0.00000000       0.00000000
P        1.96422300       0.00000000       1.96422300       0.00000000       0.00000000       0.00000000
P        1.96422300       1.96422300       0.00000000      -0.00000000      -0.00000000      -0.00000000
4
Lattice="3.98737269 0.0 0.0 0.0 3.928446 0.0 0.0 0.0 3.928446" Properties=species:S:1:pos:R:3:forces:R:3 energy=-12.16450942 stress="-0.011105577349590546 -0.0 -0.0 -0.0 -0.007424434363584992 -0.0 -0.0 -0.0 -0.007424434363584992" free_energy=-12.17814591 pbc="T T T"
P        0.00000000       0.00000000       0.00000000       0.00000000       0.00000000       0.00000000
P        0.00000000       1.96422300       1.96422300       0.00000000      -0.00000000      -0.00000000
P        1.99368634       0.00000000       1.96422300      -0.00000000      -0.00000000      -0.00000000
P        1.99368634       1.96422300       0.00000000      -0.00000000      -0.00000000      -0.00000000
4
Lattice="3.86951931 0.0 0.0 0.0 3.928446 0.0 0.0 0.0 3.928446" Properties=species:S:1:pos:R:3:forces:R:3 energy=-12.13201072 stress="-0.024716135678117118 0.0 -0.0 0.0 -0.027975677149513926 -0.0 -0.0 -0.0 -0.027975677149513926" free_energy=-12.14764826 pbc="T T T"
P        0.00000000       0.00000000       0.00000000      -0.00000000      -0.00000000      -0.00000000
P        0.00000000       1.96422300       1.96422300       0.00000000      -0.00000000       0.00000000
P        1.93475965       0.00000000       1.96422300      -0.00000000       0.00000000      -0.00000000
P        1.93475965       1.96422300       0.00000000      -0.00000000       0.00000000       0.00000000
4
Lattice="3.928446 0.0 0.0 0.0 3.98737269 0.0 0.0 0.0 3.928446" Properties=species:S:1:pos:R:3:forces:R:3 energy=-12.16450941 stress="-0.007424459454451678 -0.0 -0.0 -0.0 -0.011105628005678611 0.0 -0.0 0.0 -0.007424459454451678" free_energy=-12.1781459 pbc="T T T"
P        0.00000000       0.00000000       0.00000000      -0.00000000      -0.00000000       0.00000000
P        0.00000000       1.99368634       1.96422300      -0.00000000       0.00000000       0.00000000
P        1.96422300       0.00000000       1.96422300       0.00000000      -0.00000000      -0.00000000
P        1.96422300       1.99368634       0.00000000       0.00000000       0.00000000      -0.00000000
4
Lattice="3.928446 0.0 0.0 0.0 3.86951931 0.0 0.0 0.0 3.928446" Properties=species:S:1:pos:R:3:forces:R:3 energy=-12.13201048 stress="-0.02797581830748432 -0.0 -0.0 -0.0 -0.024716161848764885 0.0 -0.0 0.0 -0.02797581830748432" free_energy=-12.14764802 pbc="T T T"
P        0.00000000       0.00000000       0.00000000      -0.00000000       0.00000000       0.00000000
P        0.00000000       1.93475965       1.96422300       0.00000000      -0.00000000       0.00000000
P        1.96422300       0.00000000       1.96422300      -0.00000000      -0.00000000      -0.00000000
P        1.96422300       1.93475965       0.00000000      -0.00000000       0.00000000      -0.00000000
4
Lattice="3.928446 0.0 0.0 0.0 3.928446 0.0 0.0 0.0 3.98737269" Properties=species:S:1:pos:R:3:forces:R:3 energy=-12.16450941 stress="-0.007424467094058848 -0.0 -0.0 -0.0 -0.007424467094058848 -0.0 -0.0 -0.0 -0.011105631120191665" free_energy=-12.1781459 pbc="T T T"
P        0.00000000       0.00000000       0.00000000       0.00000000       0.00000000      -0.00000000
P        0.00000000       1.96422300       1.99368634      -0.00000000      -0.00000000      -0.00000000
P        1.96422300       0.00000000       1.99368634      -0.00000000      -0.00000000      -0.00000000
P        1.96422300       1.96422300       0.00000000       0.00000000       0.00000000       0.00000000
4
Lattice="3.928446 0.0 0.0 0.0 3.928446 0.0 0.0 0.0 3.86951931" Properties=species:S:1:pos:R:3:forces:R:3 energy=-12.13201047 stress="-0.027975822458087888 -0.0 -0.0 -0.0 -0.027975822458087888 0.0 -0.0 0.0 -0.02471616608674958" free_energy=-12.14764801 pbc="T T T"
P        0.00000000       0.00000000       0.00000000      -0.00000000       0.00000000      -0.00000000
P        0.00000000       1.96422300       1.93475965       0.00000000      -0.00000000       0.00000000
P        1.96422300       0.00000000       1.93475965      -0.00000000       0.00000000      -0.00000000
P        1.96422300       1.96422300       0.00000000       0.00000000       0.00000000       0.00000000
4
Lattice="3.928446 0.05892669 0.0 0.0 3.928446 0.0 0.0 0.0 3.928446" Properties=species:S:1:pos:R:3:forces:R:3 energy=-12.15235806 stress="-0.017186742205894008 -0.00013762835953123404 -0.0 -0.00013762835953123404 -0.017158515917098573 -0.0 -0.0 -0.0 -0.017486427542558237" free_energy=-12.16629736 pbc="T T T"
P        0.00000000       0.00000000       0.00000000       0.00000000       0.00000000      -0.00000000
P        0.00000000       1.96422300       1.96422300       0.00000000      -0.00000000      -0.00000000
P        1.96422300       0.02946334       1.96422300      -0.00000000       0.00000000       0.00000000
P        1.96422300       1.99368634       0.00000000      -0.00000000      -0.00000000       0.00000000
4
Lattice="3.928446 -0.05892669 0.0 0.0 3.928446 0.0 0.0 0.0 3.928446" Properties=species:S:1:pos:R:3:forces:R:3 energy=-12.15235806 stress="-0.01718673414186422 0.00013765296356020826 -0.0 0.00013765296356020826 -0.017158510686713924 -0.0 -0.0 -0.0 -0.017486414553977744" free_energy=-12.16629736 pbc="T T T"
P        0.00000000       0.00000000       0.00000000       0.00000000       0.00000000       0.00000000
P        0.00000000       1.96422300       1.96422300       0.00000000       0.00000000      -0.00000000
P        1.96422300      -0.02946334       1.96422300      -0.00000000      -0.00000000      -0.00000000
P        1.96422300       1.93475966       0.00000000      -0.00000000      -0.00000000       0.00000000
4
Lattice="3.928446 0.0 0.0 0.0 3.928446 0.05892669 0.0 0.0 3.928446" Properties=species:S:1:pos:R:3:forces:R:3 energy=-12.15235804 stress="-0.017486434245939035 -0.0 -0.0 -0.0 -0.017186744646324078 -0.00013761920323734634 -0.0 -0.00013761920323734634 -0.0171585192188569" free_energy=-12.16629734 pbc="T T T"
P        0.00000000       0.00000000       0.00000000       0.00000000      -0.00000000      -0.00000000
P        0.00000000       1.96422300       1.99368634       0.00000000       0.00000000       0.00000000
P        1.96422300       0.00000000       1.96422300       0.00000000       0.00000000      -0.00000000
P        1.96422300       1.96422300       0.02946334      -0.00000000      -0.00000000       0.00000000
4
Lattice="3.928446 0.0 0.0 0.0 3.928446 -0.05892669 0.0 0.0 3.928446" Properties=species:S:1:pos:R:3:forces:R:3 energy=-12.15235803 stress="-0.017486435974837063 -0.0 -0.0 -0.0 -0.017186755949697104 0.00013765322570359154 -0.0 0.00013765322570359154 -0.01715852972331676" free_energy=-12.16629733 pbc="T T T"
P        0.00000000       0.00000000       0.00000000       0.00000000      -0.00000000       0.00000000
P        0.00000000       1.96422300       1.93475966      -0.00000000       0.00000000       0.00000000
P        1.96422300       0.00000000       1.96422300       0.00000000       0.00000000      -0.00000000
P        1.96422300       1.96422300      -0.02946334      -0.00000000      -0.00000000      -0.00000000
4
Lattice="3.928446 0.0 0.0 0.0 3.928446 0.0 0.05892669 0.0 3.928446" Properties=species:S:1:pos:R:3:forces:R:3 energy=-12.15235806 stress="-0.0171585192875135 -0.0 -0.00013756038949685315 -0.0 -0.017486416963200267 -0.0 -0.00013756038949685315 -0.0 -0.01718672942328332" free_energy=-12.16629736 pbc="T T T"
P        0.00000000       0.00000000       0.00000000      -0.00000000      -0.00000000       0.00000000
P        0.02946334       1.96422300       1.96422300      -0.00000000      -0.00000000       0.00000000
P        1.99368634       0.00000000       1.96422300       0.00000000       0.00000000      -0.00000000
P        1.96422300       1.96422300       0.00000000       0.00000000       0.00000000      -0.00000000
4
Lattice="3.928446 0.0 0.0 0.0 3.928446 0.0 -0.05892669 0.0 3.928446" Properties=species:S:1:pos:R:3:forces:R:3 energy=-12.15235806 stress="-0.01715851370760434 -0.0 0.00013765549137140424 -0.0 -0.017486421282324582 -0.0 0.00013765549137140424 -0.0 -0.017186739946467706" free_energy=-12.16629736 pbc="T T T"
P        0.00000000       0.00000000       0.00000000       0.00000000      -0.00000000      -0.00000000
P       -0.02946334       1.96422300       1.96422300       0.00000000       0.00000000       0.00000000
P        1.93475966       0.00000000       1.96422300      -0.00000000       0.00000000       0.00000000
P        1.96422300       1.96422300       0.00000000       0.00000000      -0.00000000       0.00000000
4
Lattice="3.928446 0.0 0.0 0.0 3.928446 0.0 0.0 0.0 3.928446" Properties=species:S:1:pos:R:3:forces:R:3 energy=-12.15301404 stress="-0.017555204373133244 -0.0 -0.0 -0.0 -0.017555031427156875 -0.0 -0.0 -0.0 -0.017555031427156875" free_energy=-12.16644087 pbc="T T T"
P        0.01499999       0.00000000       0.00000000       0.03180164      -0.00000000       0.00000000
P        0.00000000       1.96422300       1.96422300      -0.02434239       0.00000000      -0.00000000
P        1.96422300       0.00000000       1.96422300      -0.00372962       0.00000000      -0.00000000
P        1.96422300       1.96422300       0.00000000      -0.00372962       0.00000000      -0.00000000
4
Lattice="3.928446 0.0 0.0 0.0 3.928446 0.0 0.0 0.0 3.928446" Properties=species:S:1:pos:R:3:forces:R:3 energy=-12.15301398 stress="-0.017555204217095513 -0.0 -0.0 -0.0 -0.01755503740028111 -0.0 -0.0 -0.0 -0.01755503740028111" free_energy=-12.16644082 pbc="T T T"
P       -0.01499999       0.00000000       0.00000000      -0.03179820      -0.00000000      -0.00000000
P        0.00000000       1.96422300       1.96422300       0.02434129      -0.00000000       0.00000000
P        1.96422300       0.00000000       1.96422300       0.00372846       0.00000000       0.00000000
P        1.96422300       1.96422300       0.00000000       0.00372846       0.00000000       0.00000000
