4
Lattice="2.431938 0.17697 0.0 -0.179862 2.431725 0.0 0.0 0.0 9.824893" Properties=species:S:1:pos:R:3:forces:R:3 energy=-15.19829309 stress="-0.02902384909772365 -0.000369006632804812 -0.0 -0.000369006632804812 -0.029132706896380648 -0.0 -0.0 -0.0 -0.019156236048853973" free_energy=-15.21106135 pbc="T T T"
P        0.02381796       0.02758956       4.91244650      -0.05165056      -0.05982949       0.00000000
P        2.22825804       2.58110544       0.00000000       0.05165056       0.05982949       0.00000000
P        0.00000000       0.00000000       7.36866975       0.00000000       0.00000000       0.00000000
P        0.00000000       0.00000000       2.45622325       0.00000000       0.00000000       0.00000000
4
Lattice="2.48171242 0.18123451 0.0 -0.18290764 2.48158879 0.0 0.0 0.0 9.95749042" Properties=species:S:1:pos:R:3:forces:R:3 energy=-15.22126552 stress="0.008978842621493831 -0.00016826254764932844 -0.0 -0.00016826254764932844 0.008929189431597529 -0.0 -0.0 -0.0 0.008940273677722111" free_energy=-15.23505348 pbc="T T T"
P        0.02176869       0.02521579       4.97874521      -0.04386974      -0.05081657       0.00000000
P        2.27703609       2.63760751       0.00000000       0.04386974       0.05081657       0.00000000
P        0.00000000       0.00000000       7.46811781       0.00000000       0.00000000      -0.00000000
P        0.00000000       0.00000000       2.48937260       0.00000000      -0.00000000      -0.00000000
4
Lattice="2.46678423 0.17995551 0.0 -0.1819942 2.4666338 0.0 0.0 0.0 9.91772223" Properties=species:S:1:pos:R:3:forces:R:3 energy=-15.2260873 stress="-0.001273954421442523 -0.0002260865283498712 -0.0 -0.0002260865283498712 -0.0013406616736970427 -0.0 -0.0 -0.0 0.0011539208137220623" free_energy=-15.23956148 pbc="T T T"
P        0.02237874       0.02592244       4.95886112      -0.04616025      -0.05346978      -0.00000000
P        2.26241129       2.62066687       0.00000000       0.04616025       0.05346978      -0.00000000
P        0.00000000       0.00000000       7.43829167       0.00000000       0.00000000       0.00000000
P        0.00000000       0.00000000       2.47943056       0.00000000       0.00000000      -0.00000000
4
Lattice="2.46809812 0.18006808 0.0 -0.1820746 2.46795005 0.0 0.0 0.0 9.92122237" Properties=species:S:1:pos:R:3:forces:R:3 energy=-15.22604303 stress="-0.00033522452083455096 -0.00022092872621200593 -0.0 -0.00022092872621200593 -0.0004004105862434015 -0.0 -0.0 -0.0 0.001859169526835727" free_energy=-15.23954728 pbc="T T T"
P        0.02232501       0.02586020       4.96061119      -0.04595685      -0.05323418       0.00000000
P        2.26369851       2.62215793       0.00000000       0.04595685       0.05323418       0.00000000
P        0.00000000       0.00000000       7.44091678       0.00000000      -0.00000000       0.00000000
P        0.00000000       0.00000000       2.48030559       0.00000000      -0.00000000       0.00000000
4
Lattice="2.46909783 0.18052999 0.0 -0.18176354 2.46900647 0.0 0.0 0.0 9.90950345" Properties=species:S:1:pos:R:3:forces:R:3 energy=-15.22653608 stress="9.469814877478457e-05 -0.00011079202361058444 -0.0 -0.00011079202361058444 6.200825096948014e-05 -0.0 -0.0 -0.0 0.00036136436675184323" free_energy=-15.24007943 pbc="T T T"
P        0.02022113       0.02342317       4.95475173      -0.04168576      -0.04828676      -0.00000000
P        2.26711316       2.62611329       0.00000000       0.04168576       0.04828676      -0.00000000
P        0.00000000       0.00000000       7.43212759       0.00000000      -0.00000000       0.00000000
P        0.00000000       0.00000000       2.47737586       0.00000000       0.00000000       0.00000000
4
Lattice="2.4705988 0.1812235 0.0 -0.18129652 2.47059258 0.0 0.0 0.0 9.89190873" Properties=species:S:1:pos:R:3:forces:R:3 energy=-15.22695818 stress="0.000721692898890664 5.756512035105587e-05 -0.0 5.756512035105587e-05 0.000738677318490054 -0.0 -0.0 -0.0 -0.0018946674795967666" free_energy=-15.2405531 pbc="T T T"
P        0.01705963       0.01976104       4.94595437      -0.03525324      -0.04083564      -0.00000000
P        2.27224265       2.63205504       0.00000000       0.03525324       0.04083564      -0.00000000
P        0.00000000       0.00000000       7.41893155      -0.00000000      -0.00000000       0.00000000
P        0.00000000       0.00000000       2.47297718       0.00000000      -0.00000000       0.00000000
4
Lattice="2.47360073 0.18261052 0.0 -0.18036248 2.47376479 0.0 0.0 0.0 9.8567193" Properties=species:S:1:pos:R:3:forces:R:3 energy=-15.22667405 stress="0.0019207373581967575 0.0004035770286531446 -0.0 0.0004035770286531446 0.002039813749353145 -0.0 -0.0 -0.0 -0.00645755066306857" free_energy=-15.24032749 pbc="T T T"
P        0.01072568       0.01242411       4.92835965      -0.02226427      -0.02578985       0.00000000
P        2.28251257       2.64395120       0.00000000       0.02226427       0.02578985       0.00000000
P        0.00000000       0.00000000       7.39253947       0.00000000      -0.00000000       0.00000000
P        0.00000000       0.00000000       2.46417982       0.00000000      -0.00000000      -0.00000000
4
Lattice="2.47160142 0.18168675 0.0 -0.18098456 2.47165207 0.0 0.0 0.0 9.88015575" Properties=species:S:1:pos:R:3:forces:R:3 energy=-15.22703097 stress="0.001129035142890034 0.00017174107799838392 -0.0 0.00017174107799838392 0.001179707552502067 -0.0 -0.0 -0.0 -0.0034089249206949858" free_energy=-15.24065316 pbc="T T T"
P        0.01493931       0.01730497       4.94007788      -0.03091659      -0.03581227       0.00000000
P        2.27567755       2.63603385       0.00000000       0.03091659       0.03581227       0.00000000
P        0.00000000       0.00000000       7.41011681       0.00000000       0.00000000      -0.00000000
P        0.00000000       0.00000000       2.47003894       0.00000000      -0.00000000      -0.00000000
4
Lattice="2.47129168 0.18177016 0.0 -0.18085684 2.47135782 0.0 0.0 0.0 9.88403587" Properties=species:S:1:pos:R:3:forces:R:3 energy=-15.22739958 stress="0.001014460833405765 0.00019352554891556188 -0.0 0.00019352554891556188 0.0010715609550854333 -0.0 -0.0 -0.0 -0.002892239357285222" free_energy=-15.24101347 pbc="T T T"
P        0.01287156       0.01490978       4.94201793      -0.02664084      -0.03085945      -0.00000000
P        2.27756328       2.63821820       0.00000000       0.02664084       0.03085945      -0.00000000
P        0.00000000       0.00000000       7.41302690       0.00000000      -0.00000000       0.00000000
P        0.00000000       0.00000000       2.47100897       0.00000000      -0.00000000       0.00000000
4
Lattice="2.47036245 0.18202038 0.0 -0.18047368 2.47047507 0.0 0.0 0.0 9.89567621" Properties=species:S:1:pos:R:3:forces:R:3 energy=-15.22817948 stress="0.000661508916208497 0.00027140733696567995 -0.0 0.00027140733696567995 0.00074158875780295 -0.0 -0.0 -0.0 -0.0013517092821630568" free_energy=-15.24176482 pbc="T T T"
P        0.00666976       0.00772592       4.94783810      -0.01382090      -0.01600945       0.00000000
P        2.28321901       2.64476953       0.00000000       0.01382090       0.01600945       0.00000000
P        0.00000000       0.00000000       7.42175716       0.00000000      -0.00000000       0.00000000
P        0.00000000       0.00000000       2.47391905       0.00000000      -0.00000000      -0.00000000
4
Lattice="2.468504 0.18252082 0.0 -0.17970736 2.46870956 0.0 0.0 0.0 9.91895691" Properties=species:S:1:pos:R:3:forces:R:3 energy=-15.22826834 stress="-8.537402694822796e-05 0.0004829778065377198 -0.0 0.0004829778065377198 5.713143533095299e-05 -0.0 -0.0 -0.0 0.0016883817394921757" free_energy=-15.24178492 pbc="T T T"
P       -0.00572792      -0.00663494       4.95947846       0.01186837       0.01374774       0.00000000
P        0.00572792       0.00663494       0.00000000      -0.01186837      -0.01374774       0.00000000
P        0.00000000       0.00000000       7.43921768       0.00000000       0.00000000      -0.00000000
P        0.00000000       0.00000000       2.47973923       0.00000000       0.00000000       0.00000000
4
Lattice="2.46938556 0.18228343 0.0 -0.18007087 2.46954703 0.0 0.0 0.0 9.90791367" Properties=species:S:1:pos:R:3:forces:R:3 energy=-15.22847177 stress="0.00027557683358251636 0.00037334901922443534 -0.0 0.00037334901922443534 0.00038573543763946054 -0.0 -0.0 -0.0 0.00025252946819182546" free_energy=-15.24202238 pbc="T T T"
P        0.00015428       0.00017871       4.95395683      -0.00033173      -0.00038426      -0.00000000
P       -0.00015428      -0.00017871       0.00000000       0.00033173       0.00038426      -0.00000000
P        0.00000000       0.00000000       7.43093525       0.00000000      -0.00000000       0.00000000
P        0.00000000       0.00000000       2.47697842       0.00000000      -0.00000000      -0.00000000
4
Lattice="2.46879955 0.18153434 0.0 -0.18072641 2.46885797 0.0 0.0 0.0 9.90623137" Properties=species:S:1:pos:R:3:forces:R:3 energy=-15.22852395 stress="-0.0001403624526038272 0.00013684491906424404 -0.0 0.00013684491906424404 -9.998546846852105e-05 -0.0 -0.0 -0.0 -9.128011113217713e-05" free_energy=-15.24206009 pbc="T T T"
P        0.00002167       0.00002510       4.95311569      -0.00004440      -0.00005144       0.00000000
P       -0.00002167      -0.00002510       0.00000000       0.00004440       0.00005144       0.00000000
P        0.00000000       0.00000000       7.42967353       0.00000000      -0.00000000      -0.00000000
P        0.00000000       0.00000000       2.47655784      -0.00000000       0.00000000       0.00000000
4
Lattice="2.46879923 0.18153392 0.0 -0.18072677 2.46885759 0.0 0.0 0.0 9.90623044" Properties=species:S:1:pos:R:3:forces:R:3 energy=-15.22852342 stress="-0.00014060042262226976 0.00013678065648628393 -0.0 0.00013678065648628393 -0.00010024240019168805 -0.0 -0.0 -0.0 -9.141425988781974e-05" free_energy=-15.24205955 pbc="T T T"
P        0.00002160       0.00002502       4.95311522      -0.00004462      -0.00005169       0.00000000
P       -0.00002160      -0.00002502       0.00000000       0.00004462       0.00005169       0.00000000
P        0.00000000       0.00000000       7.42967283      -0.00000000       0.00000000       0.00000000
P        0.00000000       0.00000000       2.47655761      -0.00000000       0.00000000      -0.00000000
4
Lattice="2.4689678 0.18119407 0.0 -0.1810876 2.46897475 0.0 0.0 0.0 9.90669936" Properties=species:S:1:pos:R:3:forces:R:3 energy=-15.22851651 stress="-2.0078079771216193e-05 1.8606531647624953e-05 -0.0 1.8606531647624953e-05 -1.458809827616229e-05 -0.0 -0.0 -0.0 -1.1595101163518365e-06" free_energy=-15.24205576 pbc="T T T"
P        0.00000215       0.00000249       4.95334968      -0.00000433      -0.00000501       0.00000000
P       -0.00000215      -0.00000249       0.00000000       0.00000433       0.00000501       0.00000000
P        0.00000000       0.00000000       7.43002452       0.00000000      -0.00000000      -0.00000000
P        0.00000000       0.00000000       2.47667484       0.00000000       0.00000000      -0.00000000
