4
Lattice="3.148625 0.0 -1.008229 0.0 4.552418 0.0 0.136678 0.0 5.847409" Properties=species:S:1:pos:R:3:forces:R:3 energy=-15.81135811 stress="-0.008459919252368109 -0.0 0.0022530510888353616 -0.0 -0.004565290558507693 0.0 0.0022530510888353616 0.0 -0.0021452607193105785" free_energy=-15.81175304 pbc="T T T"
P        1.38763396       4.15855645       4.33348181      -0.06605479       0.13380352      -0.20628413
P        1.89766904       0.39386155       0.50569819       0.06605479      -0.13380352       0.20628413
P        0.32335654       1.88234745       1.00981269       0.06605479       0.13380352       0.20628413
P        2.96194646       2.67007055       3.82936731      -0.06605479      -0.13380352      -0.20628413
4
Lattice="3.17806682 0.0 -1.01765664 0.0 4.57358438 -0.0 0.12443814 0.0 5.85987093" Properties=species:S:1:pos:R:3:forces:R:3 energy=-15.8157326 stress="0.005298845358110971 -0.0 0.0006180992888945794 -0.0 0.0076789498924636915 -0.0 0.0006180992888945794 -0.0 0.0070311968129799845" free_energy=-15.81609546 pbc="T T T"
P        1.38645484       4.18437665       4.32979953      -0.01383262      -0.06483174      -0.04319824
P        1.91605012       0.38920773       0.51241476       0.01383262       0.06483174       0.04319824
P        0.32701671       1.89758446       1.02124308       0.01383262      -0.06483174       0.04319824
P        2.97548825       2.67599992       3.82097121      -0.01383262       0.06483174      -0.04319824
4
Lattice="3.16655964 0.0 -1.01397189 0.0 4.56531161 -0.0 0.12922203 0.0 5.85500025" Properties=species:S:1:pos:R:3:forces:R:3 energy=-15.81749207 stress="0.00013129514391176417 0.0 0.0012122836613544974 0.0 0.0030472711850970486 -0.0 0.0012122836613544974 -0.0 0.003528977302874897" free_energy=-15.81786785 pbc="T T T"
P        1.38691500       4.17428952       4.33123653      -0.03385032       0.01045506      -0.10571199
P        1.90886667       0.39102209       0.50979183       0.03385032      -0.01045506       0.10571199
P        0.32558685       1.89163372       1.01677777       0.03385032       0.01045506       0.10571199
P        2.97019482       2.67367789       3.82425059      -0.03385032      -0.01045506      -0.10571199
4
Lattice="3.17005987 0.0 -1.01509271 0.0 4.567828 -0.0 0.12776687 0.0 5.8564818" Properties=species:S:1:pos:R:3:forces:R:3 energy=-15.81741671 stress="0.0017309256257997696 -0.0 0.0010256388207559096 -0.0 0.004476319992997367 -0.0 0.0010256388207559096 -0.0 0.004605495120953397" free_energy=-15.81778861 pbc="T T T"
P        1.38677497       4.17735823       4.33079920      -0.02770955      -0.01270785      -0.08653485
P        1.91105177       0.39046977       0.51058989       0.02770955       0.01270785       0.08653485
P        0.32602184       1.89344423       1.01813625       0.02770955      -0.01270785       0.08653485
P        2.97180490       2.67438377       3.82325284      -0.02770955       0.01270785      -0.08653485
4
Lattice="3.17313472 0.0 -1.01607732 0.0 4.5532198 -0.0 0.11861956 -0.0 5.83320898" Properties=species:S:1:pos:R:3:forces:R:3 energy=-15.82243906 stress="0.002008391882783364 -0.0 0.0010594670387540834 -0.0 0.0032831949559802244 0.0 0.0010594670387540834 0.0 0.004977771979981697" free_energy=-15.82286817 pbc="T T T"
P        1.37856258       4.16502826       4.30515262      -0.02183302       0.01237580      -0.06818287
P        1.91319170       0.38819154       0.51197904       0.02183302      -0.01237580       0.06818287
P        0.32662434       1.88841836       1.02001770       0.02183302       0.01237580       0.06818287
P        2.96512994       2.66480144       3.79711396      -0.02183302      -0.01237580      -0.06818287
4
Lattice="3.18235926 0.0 -1.01903114 0.0 4.50939521 -0.0 0.09117761 -0.0 5.76339052" Properties=species:S:1:pos:R:3:forces:R:3 energy=-15.83365241 stress="0.002665156359520385 -0.0 0.0010741111171255959 -0.0 -0.0003980420209112566 -0.0 0.0010741111171255959 -0.0 0.0056755792351155" free_energy=-15.83425829 pbc="T T T"
P        1.35400820       4.12800860       4.22847117      -0.00489764       0.08719717      -0.01529498
P        1.91952867       0.38138661       0.51588821       0.00489764      -0.08719717       0.01529498
P        0.32834904       1.87331100       1.02540378       0.00489764       0.08719717       0.01529498
P        2.94518783       2.63608421       3.71895560      -0.00489764      -0.08719717      -0.01529498
4
Lattice="3.20080836 0.0 -1.02493879 0.0 4.42174601 -0.0 0.0362937 -0.0 5.62375359" Properties=species:S:1:pos:R:3:forces:R:3 energy=-15.83676397 stress="0.002994749790821564 -0.0 0.0006928231229873655 -0.0 -0.008280774764629496 0.0 0.0006928231229873655 0.0 0.0049365319823795545" free_energy=-15.83764733 pbc="T T T"
P        1.30523494       4.05384883       4.07615592       0.02796016       0.23437453       0.08731748
P        1.93186712       0.36789718       0.52265888      -0.02796016      -0.23437453      -0.08731748
P        0.33146294       1.84297582       1.03512828      -0.02796016       0.23437453      -0.08731748
P        2.90563912       2.57877019       3.56368652       0.02796016      -0.23437453       0.08731748
4
Lattice="3.19298026 0.0 -1.02243213 0.0 4.45893627 -0.0 0.05958138 -0.0 5.68300266" Properties=species:S:1:pos:R:3:forces:R:3 energy=-15.83891578 stress="0.0029816915800547927 -0.0 0.0008649407761973506 -0.0 -0.004912271111577065 -0.0 0.0008649407761973506 -0.0 0.005405870019296191" free_energy=-15.8396968 pbc="T T T"
P        1.32599191       4.08529328       4.14097836       0.01257653       0.17231065       0.03927556
P        1.92656973       0.37364299       0.51959217      -0.01257653      -0.17231065      -0.03927556
P        0.33007960       1.85582515       1.03080824      -0.01257653       0.17231065      -0.03927556
P        2.92248204       2.60311112       3.62976229       0.01257653      -0.17231065       0.03927556
4
Lattice="3.19226247 0.0 -1.02220228 0.0 4.45556193 -0.0 0.05045297 -0.0 5.65325961" Properties=species:S:1:pos:R:3:forces:R:3 energy=-15.84250926 stress="0.0025653237331273388 -0.0 0.00016154639047894916 -0.0 -0.0031596089870992586 -0.0 0.00016154639047894916 -0.0 0.003018090382310989" free_energy=-15.84330253 pbc="T T T"
P        1.31696464       4.08621144       4.11278689       0.00510438       0.09725192       0.01594058
P        1.92575080       0.36935049       0.51827044      -0.00510438      -0.09725192      -0.01594058
P        0.32961956       1.85843048       1.02937158      -0.00510438       0.09725192      -0.01594058
P        2.91309588       2.59713145       3.60168575       0.00510438      -0.09725192       0.01594058
4
Lattice="3.19174651 0.0 -1.02203707 0.0 4.4531364 -0.0 0.04389135 -0.0 5.6318799" Properties=species:S:1:pos:R:3:forces:R:3 energy=-15.84393128 stress="0.002227393305875407 -0.0 -0.00036251580659689534 -0.0 -0.0019027116738714056 -0.0 -0.00036251580659689534 -0.0 0.0012113646365847657" free_energy=-15.8447447 pbc="T T T"
P        1.31048001       4.08686985       4.09253587      -0.00033863       0.04377167      -0.00105752
P        1.92515785       0.36626655       0.51730696       0.00033863      -0.04377167       0.00105752
P        0.32928460       1.86030165       1.02832550       0.00033863       0.04377167       0.00105752
P        2.90635326       2.59283475       3.58151733      -0.00033863      -0.04377167      -0.00105752
4
Lattice="3.1907146 0.0 -1.02170664 0.0 4.44828536 -0.0 0.0307681 -0.0 5.58912048" Properties=species:S:1:pos:R:3:forces:R:3 energy=-15.84378049 stress="0.0014533943510156109 -0.0 -0.0014642389481557964 -0.0 0.0005978526072373456 -0.0 -0.0014642389481557964 -0.0 -0.002650446788993615" free_energy=-15.84465746 pbc="T T T"
P        1.29752796       4.08818042       4.05208754      -0.01148850      -0.06190974      -0.03587773
P        1.92395474       0.36010494       0.51532630       0.01148850       0.06190974       0.03587773
P        0.32859744       1.86403774       1.02617962       0.01148850      -0.06190974       0.03587773
P        2.89288526       2.58424762       3.54123422      -0.01148850       0.06190974      -0.03587773
4
Lattice="3.19131918 0.0 -1.02190023 0.0 4.45112751 -0.0 0.03845681 -0.0 5.61417256" Properties=species:S:1:pos:R:3:forces:R:3 energy=-15.84435852 stress="0.0019180144623915363 -0.0 -0.00081402315017478 -0.0 -0.0008706649016657527 -0.0 -0.00081402315017478 -0.0 -0.00036345918573523606" free_energy=-15.84519483 pbc="T T T"
P        1.30512233       4.08741044       4.07580419      -0.00502981      -0.00018669      -0.01570773
P        1.92465366       0.36371707       0.51646814       0.00502981       0.00018669       0.01570773
P        0.32899407       1.86184668       1.02741826       0.00502981      -0.00018669       0.01570773
P        2.90078192       2.58928083       3.56485407      -0.00502981       0.00018669      -0.01570773
4
Lattice="3.18807619 0.0 -1.02086179 0.0 4.4528813 -0.0 0.04041882 -0.0 5.61471673" Properties=species:S:1:pos:R:3:forces:R:3 energy=-15.84458078 stress="0.0011024514382927638 0.0 -0.00042235490845080243 0.0 -0.0008161567726204086 -0.0 -0.00042235490845080243 -0.0 -8.12884099725343e-05" free_energy=-15.8454338 pbc="T T T"
P        1.30525667       4.08907386       4.07622371      -0.00259313      -0.00184291      -0.00809816
P        1.92323834       0.36380744       0.51763123       0.00259313       0.00184291       0.00809816
P        0.32920024       1.86263321       1.02806213       0.00259313      -0.00184291       0.00809816
P        2.89929477       2.59024809       3.56579281      -0.00259313       0.00184291      -0.00809816
4
Lattice="3.18703599 0.0 -1.0205287 0.0 4.45344384 -0.0 0.04104814 -0.0 5.61489128" Properties=species:S:1:pos:R:3:forces:R:3 energy=-15.84463122 stress="0.0008394655885868736 -0.0 -0.0002964647429213068 -0.0 -0.0007985127316120678 0.0 -0.0002964647429213068 0.0 8.559786619000952e-06" free_energy=-15.84548948 pbc="T T T"
P        1.30529976       4.08960745       4.07635828      -0.00181680      -0.00237992      -0.00567374
P        1.92278437       0.36383639       0.51800430       0.00181680       0.00237992       0.00567374
P        0.32926637       1.86288553       1.02826865       0.00181680      -0.00237992       0.00567374
P        2.89881776       2.59055831       3.56609393      -0.00181680       0.00237992      -0.00567374
4
Lattice="3.18495559 0.0 -1.01986253 0.0 4.45456891 -0.0 0.04230678 -0.0 5.61524037" Properties=species:S:1:pos:R:3:forces:R:3 energy=-15.84470171 stress="0.00031097084649208236 -0.0 -4.421823978721236e-05 -0.0 -0.0007627634956936203 -0.0 -4.421823978721236e-05 -0.0 0.00018703967222438204" free_energy=-15.84557029 pbc="T T T"
P        1.30538589       4.09067460       4.07662736      -0.00027290      -0.00346187      -0.00085225
P        1.92187648       0.36389431       0.51875048       0.00027290       0.00346187       0.00085225
P        0.32939868       1.86339014       1.02868175       0.00027290      -0.00346187       0.00085225
P        2.89786369       2.59117877       3.56669609      -0.00027290       0.00346187      -0.00085225
4
Lattice="3.18079478 0.0 -1.01853019 0.0 4.45681906 -0.0 0.04482407 -0.0 5.61593855" Properties=species:S:1:pos:R:3:forces:R:3 energy=-15.84472046 stress="-0.0007540163576951877 -0.0 0.0004618037240055076 -0.0 -0.000689997928847571 -0.0 0.0004618037240055076 -0.0 0.0005402869813240506" free_energy=-15.84560898 pbc="T T T"
P        1.30555818       4.09280890       4.07716533       0.00278398      -0.00565696       0.00869415
P        1.92006067       0.36401016       0.52024303      -0.00278398       0.00565696      -0.00869415
P        0.32966328       1.86439937       1.02950813      -0.00278398      -0.00565696      -0.00869415
P        2.89595557       2.59241969       3.56790023       0.00278398       0.00565696       0.00869415
4
Lattice="3.18339432 0.0 -1.0193626 0.0 4.45541324 -0.0 0.04325135 -0.0 5.61550235" Properties=species:S:1:pos:R:3:forces:R:3 energy=-15.84472784 stress="-8.738771255449343e-05 -0.0 0.00014547924802673542 -0.0 -0.0007356400503531803 -0.0 0.00014547924802673542 -0.0 0.0003203487950933406" free_energy=-15.84560401 pbc="T T T"
P        1.30545055       4.09147548       4.07682915       0.00087856      -0.00428249       0.00274367
P        1.92119512       0.36393776       0.51931060      -0.00087856       0.00428249      -0.00274367
P        0.32949796       1.86376886       1.02899190      -0.00087856      -0.00428249      -0.00274367
P        2.89714771       2.59164438       3.56714785       0.00087856       0.00428249       0.00274367
4
Lattice="3.18316993 0.0 -1.01929074 0.0 4.45763549 -0.0 0.04305496 -0.0 5.61450273" Properties=species:S:1:pos:R:3:forces:R:3 energy=-15.84475217 stress="-4.688425671976951e-05 -0.0 9.285289029228108e-05 -0.0 -0.000467321842223701 0.0 9.285289029228108e-05 0.0 0.0002133556972197706" free_energy=-15.84562683 pbc="T T T"
P        1.30521007       4.09339554       4.07607827       0.00046808      -0.00844123       0.00146177
P        1.92101482       0.36423995       0.51913372      -0.00046808       0.00844123      -0.00146177
P        0.32942986       1.86457780       1.02877909      -0.00046808      -0.00844123      -0.00146177
P        2.89679503       2.59305769       3.56643290       0.00046808       0.00844123       0.00146177
4
Lattice="3.18260391 0.0 -1.0191095 0.0 4.4632409 -0.0 0.04255958 -0.0 5.61198126" Properties=species:S:1:pos:R:3:forces:R:3 energy=-15.84476822 stress="5.344050642634369e-05 -0.0 -3.943028451411042e-05 -0.0 0.00020967886164276753 -0.0 -3.943028451411042e-05 -0.0 -5.707126094147036e-05" free_energy=-15.84563877 pbc="T T T"
P        1.30460355       4.09823844       4.07418409      -0.00057135      -0.01890990      -0.00178430
P        1.92055994       0.36500246       0.51868767       0.00057135       0.01890990       0.00178430
P        0.32925799       1.86661799       1.02824242       0.00057135      -0.01890990       0.00178430
P        2.89590550       2.59662291       3.56462934      -0.00057135       0.01890990      -0.00178430
4
Lattice="3.18237739 0.0 -1.01903696 0.0 4.46448519 -0.0 0.04249524 -0.0 5.61139036" Properties=species:S:1:pos:R:3:forces:R:3 energy=-15.8447963 stress="3.7741843948394733e-06 -0.0 -3.157437784527183e-05 -0.0 0.00013584037313646964 0.0 -3.157437784527183e-05 0.0 -8.471971706354336e-05" free_energy=-15.84566661 pbc="T T T"
P        1.30445638       4.09898234       4.07372455      -0.00047433      -0.01415887      -0.00148129
P        1.92041625       0.36550285       0.51862885       0.00047433       0.01415887       0.00148129
P        0.32922756       1.86673975       1.02814733       0.00047433      -0.01415887       0.00148129
P        2.89564507       2.59774544       3.56420607      -0.00047433       0.01415887      -0.00148129
4
Lattice="3.18171505 0.0 -1.01882487 0.0 4.46812356 0.0 0.04230709 -0.0 5.60966252" Properties=species:S:1:pos:R:3:forces:R:3 energy=-15.84484293 stress="-0.0001432622639852217 -0.0 -7.363607636534551e-06 -0.0 -7.951890468629164e-05 -0.0 -7.363607636534551e-06 -0.0 -0.00016390026329861173" free_energy=-15.84571267 pbc="T T T"
P        1.30402610       4.10115671       4.07238077      -0.00018476      -0.00025075      -0.00057699
P        1.91999604       0.36696685       0.51845688       0.00018476       0.00025075       0.00057699
P        0.32913851       1.86709493       1.02786931       0.00018476      -0.00025075       0.00057699
P        2.89488363       2.60102863       3.56296834      -0.00018476       0.00025075      -0.00057699
4
Lattice="3.18193058 0.0 -1.01889389 0.0 4.46842313 0.0 0.04232621 -0.0 5.61009329" Properties=species:S:1:pos:R:3:forces:R:3 energy=-15.84482658 stress="-3.556628480294949e-05 -0.0 -8.046934297145376e-06 -0.0 -1.6989468980272866e-05 -0.0 -8.046934297145376e-06 -0.0 -5.8119516157653325e-05" free_energy=-15.84569535 pbc="T T T"
P        1.30412206       4.10138904       4.07268050       0.00031247      -0.00023798       0.00097583
P        1.92013473       0.36703409       0.51851890      -0.00031247       0.00023798      -0.00097583
P        0.32916944       1.86717748       1.02796585      -0.00031247      -0.00023798      -0.00097583
P        2.89508735       2.60124565       3.56323355       0.00031247       0.00023798       0.00097583
4
Lattice="3.182009 0.0 -1.018919 0.0 4.46853213 0.0 0.04233317 -0.0 5.61025003" Properties=species:S:1:pos:R:3:forces:R:3 energy=-15.84482026 stress="3.5011807856733396e-06 -0.0 -8.361506357089891e-06 -0.0 5.619430394324726e-06 -0.0 -8.361506357089891e-06 -0.0 -1.993372614815277e-05" free_energy=-15.84568869 pbc="T T T"
P        1.30415699       4.10147358       4.07278955       0.00049335      -0.00023387       0.00154069
P        1.92018518       0.36705855       0.51854148      -0.00049335       0.00023387      -0.00154069
P        0.32918068       1.86720752       1.02800098      -0.00049335      -0.00023387      -0.00154069
P        2.89516149       2.60132461       3.56333005       0.00049335       0.00023387       0.00154069
4
Lattice="3.18202795 0.0 -1.01892507 0.0 4.46855972 0.0 0.04236225 -0.0 5.61037347" Properties=species:S:1:pos:R:3:forces:R:3 energy=-15.84482073 stress="9.186203199401973e-06 -0.0 -1.1214007099310185e-05 -0.0 2.372859490423542e-06 -0.0 -1.1214007099310185e-05 -0.0 -2.224344029074975e-05" free_energy=-15.84568864 pbc="T T T"
P        1.30420098       4.10148635       4.07292685       0.00042643      -0.00012451       0.00133170
P        1.92018922       0.36707337       0.51852155      -0.00042643       0.00012451      -0.00133170
P        0.32917525       1.86720649       1.02798409      -0.00042643      -0.00012451      -0.00133170
P        2.89521495       2.60135323       3.56346431       0.00042643       0.00012451       0.00133170
4
Lattice="3.1820848 0.0 -1.01894327 0.0 4.46864249 0.0 0.04244949 -0.0 5.61074379" Properties=species:S:1:pos:R:3:forces:R:3 energy=-15.84482202 stress="2.6314464618107103e-05 -0.0 -1.984824243916467e-05 -0.0 -7.5391750467365215e-06 -0.0 -1.984824243916467e-05 -0.0 -2.9314458462481145e-05" free_energy=-15.84568837 pbc="T T T"
P        1.30433290       4.10152470       4.07333894       0.00023024       0.00019842       0.00071903
P        1.92020139       0.36711779       0.51846158      -0.00023024      -0.00019842      -0.00071903
P        0.32915899       1.86720345       1.02793322      -0.00023024       0.00019842      -0.00071903
P        2.89537530       2.60143904       3.56386730       0.00023024      -0.00019842       0.00071903
