6
Lattice="1.746608 -3.025214 0.0 1.746608 3.025214 0.0 0.0 0.0 9.79214" Properties=species:S:1:pos:R:3:forces:R:3 energy=-23.45225153 stress="-0.00019972497778691844 -0.0 0.0 -0.0 -0.00019972500275295492 -0.0 0.0 -0.0 -0.00024155225146573305" free_energy=-23.4615417 pbc="T T T"
P        1.74660800      -1.00840668       1.05563186      -0.00000000      -0.00000000       0.00149342
P        1.74660800       1.00840668       8.73650814       0.00000000       0.00000000      -0.00149342
P        1.74660800       1.00840668       4.31968506       0.00000000      -0.00000000       0.00149342
P        0.00000000       0.00000000       2.20841154      -0.00000000       0.00000000      -0.00149342
P        0.00000000       0.00000000       7.58372846      -0.00000000      -0.00000000       0.00149342
P        1.74660800      -1.00840668       5.47245494       0.00000000       0.00000000      -0.00149342
6
Lattice="1.77280712 -3.025214 0.0 1.77280712 3.025214 0.0 0.0 0.0 9.79214" Properties=species:S:1:pos:R:3:forces:R:3 energy=-23.44070794 stress="0.014092962309439787 -0.0 -0.0 -0.0 0.004744697120972994 0.002857880417524565 -0.0 0.002857880417524565 0.00490848624796011" free_energy=-23.44902912 pbc="T T T"
P        1.77280712      -1.00840668       1.05563186       0.00000000      -0.00931399       0.07908515
P        1.77280712       1.00840668       8.73650814       0.00000000       0.00931399      -0.07908515
P        1.77280712       1.00840668       4.31968506       0.00000000      -0.00931399       0.07908515
P        0.00000000       0.00000000       2.20841154       0.00000000       0.00931399      -0.07908515
P        0.00000000       0.00000000       7.58372846       0.00000000      -0.00931399       0.07908515
P        1.77280712      -1.00840668       5.47245494       0.00000000       0.00931399      -0.07908515
6
Lattice="1.72040888 -3.025214 0.0 1.72040888 3.025214 0.0 0.0 0.0 9.79214" Properties=species:S:1:pos:R:3:forces:R:3 energy=-23.44073571 stress="-0.016354947382090774 -0.0 -0.0 -0.0 -0.0055959504923516114 -0.0030837116182191146 -0.0 -0.0030837116182191146 -0.0054647517110992415" free_energy=-23.45078583 pbc="T T T"
P        1.72040888      -1.00840668       1.05563186       0.00000000       0.00914335      -0.07198761
P        1.72040888       1.00840668       8.73650814       0.00000000      -0.00914335       0.07198761
P        1.72040888       1.00840668       4.31968506       0.00000000       0.00914335      -0.07198761
P        0.00000000       0.00000000       2.20841154       0.00000000      -0.00914335       0.07198761
P        0.00000000       0.00000000       7.58372846       0.00000000       0.00914335      -0.07198761
P        1.72040888      -1.00840668       5.47245494       0.00000000      -0.00914335       0.07198761
6
Lattice="1.746608 -3.07059221 0.0 1.746608 3.07059221 0.0 0.0 0.0 9.79214" Properties=species:S:1:pos:R:3:forces:R:3 energy=-23.44125938 stress="0.005396365018535165 -0.0 -0.0 -0.0 0.013429853619544217 -0.0023958565617336965 -0.0 -0.0023958565617336965 0.004952209829424569" free_energy=-23.44939395 pbc="T T T"
P        1.74660800      -1.02353278       1.05563186       0.00000000       0.02493492       0.08007781
P        1.74660800       1.02353278       8.73650814       0.00000000      -0.02493492      -0.08007781
P        1.74660800       1.02353278       4.31968506       0.00000000       0.02493492       0.08007781
P        0.00000000       0.00000000       2.20841154       0.00000000      -0.02493492      -0.08007781
P        0.00000000       0.00000000       7.58372846       0.00000000       0.02493492       0.08007781
P        1.74660800      -1.02353278       5.47245494       0.00000000      -0.02493492      -0.08007781
6
Lattice="1.746608 -2.97983579 0.0 1.746608 2.97983579 0.0 0.0 0.0 9.79214" Properties=species:S:1:pos:R:3:forces:R:3 energy=-23.44041039 stress="-0.005051413436527909 -0.0 -0.0 -0.0 -0.016752210418972555 0.0035250887365838165 -0.0 0.0035250887365838165 -0.0055794635647201185" free_energy=-23.45052799 pbc="T T T"
P        1.74660800      -0.99328058       1.05563186       0.00000000       0.00539468      -0.07393495
P        1.74660800       0.99328058       8.73650814       0.00000000      -0.00539468       0.07393495
P        1.74660800       0.99328058       4.31968506       0.00000000       0.00539468      -0.07393495
P        0.00000000       0.00000000       2.20841154      -0.00000000      -0.00539468       0.07393495
P        0.00000000       0.00000000       7.58372846      -0.00000000       0.00539468      -0.07393495
P        1.74660800      -0.99328058       5.47245494       0.00000000      -0.00539468       0.07393495
6
Lattice="1.746608 -3.025214 0.0 1.746608 3.025214 0.0 0.0 0.0 9.9390221" Properties=species:S:1:pos:R:3:forces:R:3 energy=-23.4461543 stress="0.004990606432646305 -0.0 0.0 -0.0 0.004990607106729291 -0.0 0.0 -0.0 0.00645379333074837" free_energy=-23.45614776 pbc="T T T"
P        1.74660800      -1.00840668       1.07146634      -0.00000000      -0.00000000       0.14468463
P        1.74660800       1.00840668       8.86755576      -0.00000000       0.00000000      -0.14468463
P        1.74660800       1.00840668       4.38448033       0.00000000      -0.00000000       0.14468463
P        0.00000000       0.00000000       2.24153772       0.00000000       0.00000000      -0.14468463
P        0.00000000       0.00000000       7.69748438       0.00000000      -0.00000000       0.14468463
P        1.74660800      -1.00840668       5.55454177      -0.00000000       0.00000000      -0.14468463
6
Lattice="1.746608 -3.025214 0.0 1.746608 3.025214 0.0 0.0 0.0 9.6452579" Properties=species:S:1:pos:R:3:forces:R:3 energy=-23.44743818 stress="-0.005473238902725599 -0.0 -0.0 -0.0 -0.005473239639223676 0.0 -0.0 0.0 -0.007596536993482511" free_energy=-23.45601105 pbc="T T T"
P        1.74660800      -1.00840668       1.03979738      -0.00000000      -0.00000000      -0.14109030
P        1.74660800       1.00840668       8.60546052      -0.00000000       0.00000000       0.14109030
P        1.74660800       1.00840668       4.25488978       0.00000000      -0.00000000      -0.14109030
P        0.00000000       0.00000000       2.17528537       0.00000000       0.00000000       0.14109030
P        0.00000000       0.00000000       7.46997253      -0.00000000      -0.00000000      -0.14109030
P        1.74660800      -1.00840668       5.39036812      -0.00000000       0.00000000       0.14109030
6
Lattice="1.746608 -2.99901488 0.0 1.746608 3.05141312 0.0 0.0 0.0 9.79214" Properties=species:S:1:pos:R:3:forces:R:3 energy=-23.44851625 stress="-0.0008481508919543961 0.004902968866239994 0.0029470094736761252 0.004902968866239994 -0.00011880562824899761 -0.000192899388237035 0.0029470094736761252 -0.000192899388237035 6.855375903884867e-05" free_energy=-23.45776642 pbc="T T T"
P        1.74660800      -0.98220756       1.05563186      -0.01031129      -0.00809708       0.00715171
P        1.74660800       1.03460580       8.73650814       0.01031129       0.00809708      -0.00715171
P        1.74660800       1.03460580       4.31968506      -0.01031129      -0.00809708       0.00715171
P        0.00000000       0.00000000       2.20841154       0.01031129       0.00809708      -0.00715171
P        0.00000000       0.00000000       7.58372846      -0.01031129      -0.00809708       0.00715171
P        1.74660800      -0.98220756       5.47245494       0.01031129       0.00809708      -0.00715171
6
Lattice="1.746608 -3.05141312 0.0 1.746608 2.99901488 0.0 0.0 0.0 9.79214" Properties=species:S:1:pos:R:3:forces:R:3 energy=-23.44851618 stress="-0.0008482322625088701 -0.004903046329609756 -0.0029467247048222565 -0.004903046329609756 -0.00011884573618664053 -0.0001929195295869842 -0.0029467247048222565 -0.0001929195295869842 6.854497723550855e-05" free_energy=-23.45776635 pbc="T T T"
P        1.74660800      -1.03460580       1.05563186       0.01032349      -0.00809736       0.00715117
P        1.74660800       0.98220756       8.73650814      -0.01032349       0.00809736      -0.00715117
P        1.74660800       0.98220756       4.31968506       0.01032349      -0.00809736       0.00715117
P        0.00000000       0.00000000       2.20841154      -0.01032349       0.00809736      -0.00715117
P        0.00000000       0.00000000       7.58372846       0.01032349      -0.00809736       0.00715117
P        1.74660800      -1.03460580       5.47245494      -0.01032349       0.00809736      -0.00715117
6
Lattice="1.746608 -3.025214 -0.04537821 1.746608 3.025214 0.04537821 0.0 0.0 9.79214" Properties=species:S:1:pos:R:3:forces:R:3 energy=-23.44626351 stress="0.0030184984646606573 -0.0 -0.0 -0.0 -0.0034153998747451955 0.007751896706493248 -0.0 0.007751896706493248 -0.0003444175584864458" free_energy=-23.455576 pbc="T T T"
P        1.74660800      -1.00840668       1.04050576       0.00000000       0.06547824      -0.00080438
P        1.74660800       1.00840668       8.75163424       0.00000000      -0.06547824       0.00080438
P        1.74660800       1.00840668       4.33481116       0.00000000       0.06547824      -0.00080438
P        0.00000000       0.00000000       2.20841154       0.00000000      -0.06547824       0.00080438
P        0.00000000       0.00000000       7.58372846       0.00000000       0.06547824      -0.00080438
P        1.74660800      -1.00840668       5.45732884       0.00000000      -0.06547824       0.00080438
6
Lattice="1.746608 -3.025214 0.04537821 1.746608 3.025214 -0.04537821 0.0 0.0 9.79214" Properties=species:S:1:pos:R:3:forces:R:3 energy=-23.44647234 stress="-0.002935502802213902 -0.0 -0.0 -0.0 0.002556293293029682 -0.007438065220331044 -0.0 -0.007438065220331044 -0.00035929046306553124" free_energy=-23.45573515 pbc="T T T"
P        1.74660800      -1.00840668       1.07075796       0.00000000      -0.06580835      -0.00093159
P        1.74660800       1.00840668       8.72138204       0.00000000       0.06580835       0.00093159
P        1.74660800       1.00840668       4.30455896       0.00000000      -0.06580835      -0.00093159
P        0.00000000       0.00000000       2.20841154       0.00000000       0.06580835       0.00093159
P        0.00000000       0.00000000       7.58372846       0.00000000      -0.06580835      -0.00093159
P        1.74660800      -1.00840668       5.48758104       0.00000000       0.06580835       0.00093159
6
Lattice="1.746608 -3.025214 0.0 1.746608 3.025214 0.0 0.1468821 0.0 9.79214" Properties=species:S:1:pos:R:3:forces:R:3 energy=-23.44636846 stress="-0.0002767101980171399 0.0029847428229305994 0.007592943918957978 0.0029847428229305994 4.324610601632866e-05 -0.00022705344421912563 0.007592943918957978 -0.00022705344421912563 -0.0005663008236551096" free_energy=-23.45566758 pbc="T T T"
P        1.76244248      -1.00840668       1.05563186       0.06576821       0.00020570      -0.00137046
P        1.87765562       1.00840668       8.73650814      -0.06576821      -0.00020570       0.00137046
P        1.81140328       1.00840668       4.31968506       0.06576821       0.00020570      -0.00137046
P        0.03312617       0.00000000       2.20841154      -0.06576821      -0.00020570       0.00137046
P        0.11375593       0.00000000       7.58372846       0.06576821       0.00020570      -0.00137046
P        1.82869482      -1.00840668       5.47245494      -0.06576821      -0.00020570       0.00137046
6
Lattice="1.746608 -3.025214 0.0 1.746608 3.025214 0.0 -0.1468821 0.0 9.79214" Properties=species:S:1:pos:R:3:forces:R:3 energy=-23.44636817 stress="-0.00027694316234526346 -0.0029844535164995963 -0.007592483788663708 -0.0029844535164995963 4.3274635954543075e-05 -0.00022727327641204836 -0.007592483788663708 -0.00022727327641204836 -0.0005664311962977309" free_energy=-23.45566729 pbc="T T T"
P        1.73077352      -1.00840668       1.05563186      -0.06577137       0.00021054      -0.00136896
P        1.61556038       1.00840668       8.73650814       0.06577137      -0.00021054       0.00136896
P        1.68181272       1.00840668       4.31968506      -0.06577137       0.00021054      -0.00136896
P       -0.03312617       0.00000000       2.20841154       0.06577137      -0.00021054       0.00136896
P       -0.11375593       0.00000000       7.58372846      -0.06577137       0.00021054      -0.00136896
P        1.66452118      -1.00840668       5.47245494       0.06577137      -0.00021054       0.00136896
6
Lattice="1.746608 -3.025214 0.0 1.746608 3.025214 0.0 0.0 0.0 9.79214" Properties=species:S:1:pos:R:3:forces:R:3 energy=-23.4514949 stress="-0.00024115585946265735 9.177292196822949e-05 -0.0006319900857711979 9.177292196822949e-05 -0.00020677024349199642 -1.1444262612473145e-05 -0.0006319900857711979 -1.1444262612473145e-05 -0.00024828179043167827" free_energy=-23.46078522 pbc="T T T"
P        1.76160801      -1.00840668       1.05563186      -0.10140074      -0.00116151       0.00033085
P        1.74660800       1.00840668       8.73650814      -0.00516077       0.00012227      -0.00129248
P        1.74660800       1.00840668       4.31968506       0.01473120      -0.00006486       0.00135826
P        0.00000000       0.00000000       2.20841154       0.08730734       0.00109996      -0.00042834
P        0.00000000       0.00000000       7.58372846       0.01473104      -0.00007736       0.00145265
P        1.74660800      -1.00840668       5.47245494      -0.01020807       0.00008150      -0.00142095
6
Lattice="1.746608 -3.025214 0.0 1.746608 3.025214 0.0 0.0 0.0 9.79214" Properties=species:S:1:pos:R:3:forces:R:3 energy=-23.45149484 stress="-0.00024119743415494484 -9.151886133926041e-05 0.0006322819699454698 -9.151886133926041e-05 -0.00020678238322724627 -1.1450747540454936e-05 0.0006322819699454698 -1.1450747540454936e-05 -0.0002483393621118554" free_energy=-23.46078515 pbc="T T T"
P        1.73160799      -1.00840668       1.05563186       0.10141362      -0.00116029       0.00033302
P        1.74660800       1.00840668       8.73650814       0.00515927       0.00012299      -0.00129306
P        1.74660800       1.00840668       4.31968506      -0.01473470      -0.00006486       0.00135747
P        0.00000000       0.00000000       2.20841154      -0.08730611       0.00109882      -0.00042953
P        0.00000000       0.00000000       7.58372846      -0.01473887      -0.00007754       0.00145275
P        1.74660800      -1.00840668       5.47245494       0.01020679       0.00008087      -0.00142065
6
Lattice="1.746608 -3.025214 0.0 1.746608 3.025214 0.0 0.0 0.0 9.79214" Properties=species:S:1:pos:R:3:forces:R:3 energy=-23.45158251 stress="-0.0009653528955051895 -0.0 -0.0 -0.0 -0.0009653530203353721 0.0 -0.0 0.0 -0.0016004886269777232" free_energy=-23.46075167 pbc="T T T"
P        1.74660800      -1.00840668       1.07063185      -0.00000000       0.00000000      -0.15168770
P        1.74660800       1.00840668       8.73650814      -0.00000000      -0.00000000      -0.00089504
P        1.74660800       1.00840668       4.31968506       0.00000000       0.00000000       0.00886605
P        0.00000000       0.00000000       2.20841154      -0.00000000       0.00000000       0.14534398
P        0.00000000       0.00000000       7.58372846      -0.00000000       0.00000000       0.00889449
P        1.74660800      -1.00840668       5.47245494       0.00000000       0.00000000      -0.01052178
6
Lattice="1.746608 -3.025214 0.0 1.746608 3.025214 0.0 0.0 0.0 9.79214" Properties=species:S:1:pos:R:3:forces:R:3 energy=-23.45060831 stress="0.0005254179464806232 -0.0 0.0 -0.0 0.0005254180213787327 0.0 0.0 0.0 0.0011542387749214622" free_energy=-23.4600198 pbc="T T T"
P        1.74660800      -1.00840668       1.04063187      -0.00000000      -0.00000000       0.15571096
P        1.74660800       1.00840668       8.73650814      -0.00000000       0.00000000      -0.00198076
P        1.74660800       1.00840668       4.31968506      -0.00000000      -0.00000000      -0.00647006
P        0.00000000       0.00000000       2.20841154       0.00000000      -0.00000000      -0.14889648
P        0.00000000       0.00000000       7.58372846       0.00000000       0.00000000      -0.00643544
P        1.74660800      -1.00840668       5.47245494      -0.00000000      -0.00000000       0.00807177
