6
Lattice="1.746649 -3.025285 0.0 1.746649 3.025285 0.0 0.0 0.0 9.793128" Properties=species:S:1:pos:R:3:forces:R:3 energy=-23.45226228 stress="-0.00016002555315779079 -0.0 0.0 -0.0 -0.0001600255781238273 0.0 0.0 0.0 -0.00022848665075215658" free_energy=-23.46155036 pbc="T T T"
P        1.74664900      -1.00843035       1.05583630       0.00000000       0.00000000       0.00100595
P        1.74664900       1.00843035       8.73729170      -0.00000000      -0.00000000      -0.00100595
P        1.74664900       1.00843035       4.32020904      -0.00000000       0.00000000       0.00100595
P        0.00000000       0.00000000       2.20854623      -0.00000000      -0.00000000      -0.00100595
P        0.00000000       0.00000000       7.58458177       0.00000000       0.00000000       0.00100595
P        1.74664900      -1.00843035       5.47291896      -0.00000000      -0.00000000      -0.00100595
6
Lattice="1.77284873 -3.025285 0.0 1.77284873 3.025285 0.0 0.0 0.0 9.793128" Properties=species:S:1:pos:R:3:forces:R:3 energy=-23.44065921 stress="0.014128012614924808 -0.0 -0.0 -0.0 0.004783592932577636 0.0028575189654895757 -0.0 0.0028575189654895757 0.0049199741449628825" free_energy=-23.44897842 pbc="T T T"
P        1.77284873      -1.00843035       1.05583630       0.00000000      -0.00927908       0.07859488
P        1.77284873       1.00843035       8.73729170       0.00000000       0.00927908      -0.07859488
P        1.77284873       1.00843035       4.32020904       0.00000000      -0.00927908       0.07859488
P        0.00000000       0.00000000       2.20854623       0.00000000       0.00927908      -0.07859488
P        0.00000000       0.00000000       7.58458177       0.00000000      -0.00927908       0.07859488
P        1.77284873      -1.00843035       5.47291896       0.00000000       0.00927908      -0.07859488
6
Lattice="1.72044926 -3.025285 0.0 1.72044926 3.025285 0.0 0.0 0.0 9.793128" Properties=species:S:1:pos:R:3:forces:R:3 energy=-23.44081039 stress="-0.01630821469417862 -0.0 -0.0 -0.0 -0.005555160726010265 -0.003083304378473178 -0.0 -0.003083304378473178 -0.005451427718149362" free_energy=-23.4508591 pbc="T T T"
P        1.72044926      -1.00843035       1.05583630       0.00000000       0.00910774      -0.07249356
P        1.72044926       1.00843035       8.73729170       0.00000000      -0.00910774       0.07249356
P        1.72044926       1.00843035       4.32020904       0.00000000       0.00910774      -0.07249356
P        0.00000000       0.00000000       2.20854623       0.00000000      -0.00910774       0.07249356
P        0.00000000       0.00000000       7.58458177       0.00000000       0.00910774      -0.07249356
P        1.72044926      -1.00843035       5.47291896       0.00000000      -0.00910774       0.07249356
6
Lattice="1.746649 -3.07066427 0.0 1.746649 3.07066427 0.0 0.0 0.0 9.793128" Properties=species:S:1:pos:R:3:forces:R:3 energy=-23.44121081 stress="0.005435376042156762 -0.0 -0.0 -0.0 0.013464686327296582 -0.0023956174807266296 -0.0 -0.0023956174807266296 0.004963830820367942" free_energy=-23.4493433 pbc="T T T"
P        1.74664900      -1.02355680       1.05583630       0.00000000       0.02489728       0.07958548
P        1.74664900       1.02355680       8.73729170       0.00000000      -0.02489728      -0.07958548
P        1.74664900       1.02355680       4.32020904       0.00000000       0.02489728       0.07958548
P        0.00000000       0.00000000       2.20854623       0.00000000      -0.02489728      -0.07958548
P        0.00000000       0.00000000       7.58458177       0.00000000       0.02489728       0.07958548
P        1.74664900      -1.02355680       5.47291896       0.00000000      -0.02489728      -0.07958548
6
Lattice="1.746649 -2.97990572 0.0 1.746649 2.97990572 0.0 0.0 0.0 9.793128" Properties=species:S:1:pos:R:3:forces:R:3 energy=-23.44048455 stress="-0.005010290791780351 -0.0 -0.0 -0.0 -0.016705782210600085 0.003524546742655852 -0.0 0.003524546742655852 -0.005566195208582587" free_energy=-23.45060108 pbc="T T T"
P        1.74664900      -0.99330389       1.05583630      -0.00000000       0.00542601      -0.07443998
P        1.74664900       0.99330389       8.73729170      -0.00000000      -0.00542601       0.07443998
P        1.74664900       0.99330389       4.32020904      -0.00000000       0.00542601      -0.07443998
P        0.00000000       0.00000000       2.20854623       0.00000000      -0.00542601       0.07443998
P        0.00000000       0.00000000       7.58458177       0.00000000       0.00542601      -0.07443998
P        1.74664900      -0.99330389       5.47291896       0.00000000      -0.00542601       0.07443998
6
Lattice="1.746649 -3.025285 0.0 1.746649 3.025285 0.0 0.0 0.0 9.94002492" Properties=species:S:1:pos:R:3:forces:R:3 energy=-23.44614755 stress="0.005028979555310711 -0.0 -0.0 -0.0 0.005028980185703132 0.0 -0.0 0.0 0.006461336725055276" free_energy=-23.45613931 pbc="T T T"
P        1.74664900      -1.00843035       1.07167385      -0.00000000       0.00000000       0.14419062
P        1.74664900       1.00843035       8.86835107       0.00000000      -0.00000000      -0.14419062
P        1.74664900       1.00843035       4.38501217      -0.00000000       0.00000000       0.14419062
P        0.00000000       0.00000000       2.24167442       0.00000000      -0.00000000      -0.14419062
P        0.00000000       0.00000000       7.69835050      -0.00000000       0.00000000       0.14419062
P        1.74664900      -1.00843035       5.55501275      -0.00000000      -0.00000000      -0.14419062
6
Lattice="1.746649 -3.025285 0.0 1.746649 3.025285 0.0 0.0 0.0 9.64623108" Properties=species:S:1:pos:R:3:forces:R:3 energy=-23.44747379 stress="-0.005432140799591925 -0.0 -0.0 -0.0 -0.00543214147991642 0.0 -0.0 0.0 -0.007577903386168298" free_energy=-23.45604377 pbc="T T T"
P        1.74664900      -1.00843035       1.03999876       0.00000000       0.00000000      -0.14158371
P        1.74664900       1.00843035       8.60623232      -0.00000000      -0.00000000       0.14158371
P        1.74664900       1.00843035       4.25540590       0.00000000       0.00000000      -0.14158371
P        0.00000000       0.00000000       2.17541803      -0.00000000      -0.00000000       0.14158371
P        0.00000000       0.00000000       7.47081305       0.00000000       0.00000000      -0.14158371
P        1.74664900      -1.00843035       5.39082518      -0.00000000      -0.00000000       0.14158371
6
Lattice="1.746649 -2.99908526 0.0 1.746649 3.05148473 0.0 0.0 0.0 9.793128" Properties=species:S:1:pos:R:3:forces:R:3 energy=-23.44852778 stress="-0.0008083839966116175 0.0049004804764156504 0.0029466036445112507 0.0049004804764156504 -7.88282442524579e-05 -0.0001928232605502266 0.0029466036445112507 -0.0001928232605502266 8.118810892088134e-05" free_energy=-23.45777634 pbc="T T T"
P        1.74664900      -0.98223061       1.05583630      -0.01027780      -0.00809401       0.00665927
P        1.74664900       1.03463008       8.73729170       0.01027780       0.00809401      -0.00665927
P        1.74664900       1.03463008       4.32020904      -0.01027780      -0.00809401       0.00665927
P        0.00000000       0.00000000       2.20854623       0.01027780       0.00809401      -0.00665927
P        0.00000000       0.00000000       7.58458177      -0.01027780      -0.00809401       0.00665927
P        1.74664900      -0.98223061       5.47291896       0.01027780       0.00809401      -0.00665927
6
Lattice="1.746649 -3.05148473 0.0 1.746649 2.99908526 0.0 0.0 0.0 9.793128" Properties=species:S:1:pos:R:3:forces:R:3 energy=-23.44852771 stress="-0.0008084648740868708 -0.004900558563936324 -0.00294631896303851 -0.004900558563936324 -7.886890768441302e-05 -0.00019284424450390783 -0.00294631896303851 -0.00019284424450390783 8.117950812130588e-05" free_energy=-23.45777627 pbc="T T T"
P        1.74664900      -1.03463008       1.05583630       0.01029002      -0.00809428       0.00665874
P        1.74664900       0.98223061       8.73729170      -0.01029002       0.00809428      -0.00665874
P        1.74664900       0.98223061       4.32020904       0.01029002      -0.00809428       0.00665874
P        0.00000000       0.00000000       2.20854623      -0.01029002       0.00809428      -0.00665874
P        0.00000000       0.00000000       7.58458177       0.01029002      -0.00809428       0.00665874
P        1.74664900      -1.03463008       5.47291896      -0.01029002       0.00809428      -0.00665874
6
Lattice="1.746649 -3.025285 -0.04537927 1.746649 3.025285 0.04537927 0.0 0.0 9.793128" Properties=species:S:1:pos:R:3:forces:R:3 energy=-23.44627484 stress="0.0030576347116798475 -0.0 -0.0 -0.0 -0.0033751351004609543 0.007749753085149999 -0.0 0.007749753085149999 -0.0003315372619373077" free_energy=-23.45558542 pbc="T T T"
P        1.74664900      -1.00843035       1.04070985       0.00000000       0.06552384      -0.00129275
P        1.74664900       1.00843035       8.75241815       0.00000000      -0.06552384       0.00129275
P        1.74664900       1.00843035       4.33533549       0.00000000       0.06552384      -0.00129275
P        0.00000000       0.00000000       2.20854623       0.00000000      -0.06552384       0.00129275
P        0.00000000       0.00000000       7.58458177       0.00000000       0.06552384      -0.00129275
P        1.74664900      -1.00843035       5.45779251       0.00000000      -0.06552384       0.00129275
6
Lattice="1.746649 -3.025285 0.04537927 1.746649 3.025285 -0.04537927 0.0 0.0 9.793128" Properties=species:S:1:pos:R:3:forces:R:3 energy=-23.44648368 stress="-0.0028955659380946073 -0.0 -0.0 -0.0 0.002595806358679329 -0.007435974614366313 -0.0 -0.007435974614366313 -0.0003463941320794487" free_energy=-23.45574456 pbc="T T T"
P        1.74664900      -1.00843035       1.07096276       0.00000000      -0.06585124      -0.00142068
P        1.74664900       1.00843035       8.72216524       0.00000000       0.06585124       0.00142068
P        1.74664900       1.00843035       4.30508258       0.00000000      -0.06585124      -0.00142068
P        0.00000000       0.00000000       2.20854623       0.00000000       0.06585124       0.00142068
P        0.00000000       0.00000000       7.58458177       0.00000000      -0.06585124      -0.00142068
P        1.74664900      -1.00843035       5.48804542       0.00000000       0.06585124       0.00142068
6
Lattice="1.746649 -3.025285 0.0 1.746649 3.025285 0.0 0.14689692 0.0 9.793128" Properties=species:S:1:pos:R:3:forces:R:3 energy=-23.4463801 stress="-0.0002368038673604892 0.002984346699312416 0.007590446360356728 0.002984346699312416 8.281089505210187e-05 -0.00022702118185845394 0.007590446360356728 -0.00022702118185845394 -0.0005533129983867507" free_energy=-23.45567731 pbc="T T T"
P        1.76248654      -1.00843035       1.05583630       0.06580409       0.00020470      -0.00185982
P        1.87770838       1.00843035       8.73729170      -0.06580409      -0.00020470       0.00185982
P        1.81145214       1.00843035       4.32020904       0.06580409       0.00020470      -0.00185982
P        0.03312819       0.00000000       2.20854623      -0.06580409      -0.00020470       0.00185982
P        0.11376873       0.00000000       7.58458177       0.06580409       0.00020470      -0.00185982
P        1.82874278      -1.00843035       5.47291896      -0.06580409      -0.00020470       0.00185982
6
Lattice="1.746649 -3.025285 0.0 1.746649 3.025285 0.0 -0.14689692 0.0 9.793128" Properties=species:S:1:pos:R:3:forces:R:3 energy=-23.44637981 stress="-0.0002370369939678501 -0.0029840552395607647 -0.007589984488681412 -0.0029840552395607647 8.283876963185806e-05 -0.00022724042110800974 -0.007589984488681412 -0.00022724042110800974 -0.0005534437455199197" free_energy=-23.45567702 pbc="T T T"
P        1.73081146      -1.00843035       1.05583630      -0.06580723       0.00020954      -0.00185833
P        1.61558962       1.00843035       8.73729170       0.06580723      -0.00020954       0.00185833
P        1.68184586       1.00843035       4.32020904      -0.06580723       0.00020954      -0.00185833
P       -0.03312819       0.00000000       2.20854623       0.06580723      -0.00020954       0.00185833
P       -0.11376873       0.00000000       7.58458177      -0.06580723       0.00020954      -0.00185833
P        1.66455522      -1.00843035       5.47291896       0.06580723      -0.00020954       0.00185833
6
Lattice="1.746649 -3.025285 0.0 1.746649 3.025285 0.0 0.0 0.0 9.793128" Properties=species:S:1:pos:R:3:forces:R:3 energy=-23.45150562 stress="-0.00020145027446402246 9.140831172962276e-05 -0.0006322726076817811 9.140831172962276e-05 -0.0001670854864093146 -1.1436760318503832e-05 -0.0006322726076817811 -1.1436760318503832e-05 -0.00023525396333133163" free_energy=-23.46079385 pbc="T T T"
P        1.76164901      -1.00843035       1.05583630      -0.10140476      -0.00116114      -0.00019654
P        1.74664900       1.00843035       8.73729170      -0.00515472       0.00012222      -0.00076484
P        1.74664900       1.00843035       4.32020904       0.01471937      -0.00006487       0.00094186
P        0.00000000       0.00000000       2.20854623       0.08731990       0.00109959       0.00008988
P        0.00000000       0.00000000       7.58458177       0.01471883      -0.00007727       0.00093411
P        1.74664900      -1.00843035       5.47291896      -0.01019863       0.00008147      -0.00100446
6
Lattice="1.746649 -3.025285 0.0 1.746649 3.025285 0.0 0.0 0.0 9.793128" Properties=species:S:1:pos:R:3:forces:R:3 energy=-23.45150555 stress="-0.00020149297886946175 -9.115938162115517e-05 0.0006325606346034131 -9.115938162115517e-05 -0.00016709693957856059 -1.1443020552157094e-05 0.0006325606346034131 -1.1443020552157094e-05 -0.00023531054885306689" free_energy=-23.46079378 pbc="T T T"
P        1.73164899      -1.00843035       1.05583630       0.10141766      -0.00115992      -0.00019460
P        1.74664900       1.00843035       8.73729170       0.00515307       0.00012298      -0.00076516
P        1.74664900       1.00843035       4.32020904      -0.01472265      -0.00006484       0.00094118
P        0.00000000       0.00000000       2.20854623      -0.08731872       0.00109845       0.00008864
P        0.00000000       0.00000000       7.58458177      -0.01472646      -0.00007748       0.00093424
P        1.74664900      -1.00843035       5.47291896       0.01019710       0.00008082      -0.00100430
6
Lattice="1.746649 -3.025285 0.0 1.746649 3.025285 0.0 0.0 0.0 9.793128" Properties=species:S:1:pos:R:3:forces:R:3 energy=-23.45158547 stress="-0.0009256270880169868 -0.0 -0.0 -0.0 -0.0009256272066056603 -0.0 -0.0 -0.0 -0.0015871559083980862" free_energy=-23.46075244 pbc="T T T"
P        1.74664900      -1.00843035       1.07083634      -0.00000000       0.00000000      -0.15219713
P        1.74664900       1.00843035       8.73729170       0.00000000      -0.00000000      -0.00036481
P        1.74664900       1.00843035       4.32020904      -0.00000000       0.00000000       0.00843246
P        0.00000000       0.00000000       2.20854623       0.00000000       0.00000000       0.14586436
P        0.00000000       0.00000000       7.58458177       0.00000000       0.00000000       0.00835855
P        1.74664900      -1.00843035       5.47291896      -0.00000000      -0.00000000      -0.01009343
6
Lattice="1.746649 -3.025285 0.0 1.746649 3.025285 0.0 0.0 0.0 9.793128" Properties=species:S:1:pos:R:3:forces:R:3 energy=-23.45062703 stress="0.0005651225390793071 0.0 0.0 0.0 0.0005651226139774166 -0.0 0.0 -0.0 0.0011669626779764331" free_energy=-23.46003655 pbc="T T T"
P        1.74664900      -1.00843035       1.04083627      -0.00000000       0.00000000       0.15516704
P        1.74664900       1.00843035       8.73729170      -0.00000000      -0.00000000      -0.00145451
P        1.74664900       1.00843035       4.32020904       0.00000000      -0.00000000      -0.00686948
P        0.00000000       0.00000000       2.20854623       0.00000000      -0.00000000      -0.14838300
P        0.00000000       0.00000000       7.58458177       0.00000000      -0.00000000      -0.00693648
P        1.74664900      -1.00843035       5.47291896      -0.00000000       0.00000000       0.00847643
