8
Lattice="3.341244 0.0 0.0 0.0 10.712847 0.0 0.0 0.0 4.468642" Properties=species:S:1:pos:R:3:forces:R:3 energy=-31.68979421 stress="-4.099924387062932e-05 -0.0 -0.0 -0.0 -0.0001722592980180878 -0.0 -0.0 -0.0 -6.823484288855253e-05" free_energy=-31.69136345 pbc="T T T"
P        1.67062200       9.63349553       0.36711681      -0.00000000      -0.00022044       0.00067210
P        1.67062200       1.07935147       4.10152519       0.00000000       0.00022044      -0.00067210
P        0.00000000       1.07935147       2.60143781      -0.00000000       0.00022044       0.00067210
P        0.00000000       9.63349553       1.86720419       0.00000000      -0.00022044      -0.00067210
P        0.00000000       4.27707203       0.36711681      -0.00000000      -0.00022044       0.00067210
P        0.00000000       6.43577497       4.10152519      -0.00000000       0.00022044      -0.00067210
P        1.67062200       6.43577497       2.60143781      -0.00000000       0.00022044       0.00067210
P        1.67062200       4.27707203       1.86720419       0.00000000      -0.00022044      -0.00067210
8
Lattice="3.39136266 0.0 0.0 0.0 10.712847 0.0 0.0 0.0 4.468642" Properties=species:S:1:pos:R:3:forces:R:3 energy=-31.66706305 stress="0.016226618459217503 -0.0 -0.0 -0.0 0.0017116265862316096 -0.0 -0.0 -0.0 0.00516344155357182" free_energy=-31.66827892 pbc="T T T"
P        1.69568133       9.63349553       0.36711681      -0.00000000       0.02352833       0.04142333
P        1.69568133       1.07935147       4.10152519      -0.00000000      -0.02352833      -0.04142333
P        0.00000000       1.07935147       2.60143781       0.00000000      -0.02352833       0.04142333
P        0.00000000       9.63349553       1.86720419      -0.00000000       0.02352833      -0.04142333
P        0.00000000       4.27707203       0.36711681       0.00000000       0.02352833       0.04142333
P        0.00000000       6.43577497       4.10152519       0.00000000      -0.02352833      -0.04142333
P        1.69568133       6.43577497       2.60143781      -0.00000000      -0.02352833       0.04142333
P        1.69568133       4.27707203       1.86720419      -0.00000000       0.02352833      -0.04142333
8
Lattice="3.29112534 0.0 0.0 0.0 10.712847 0.0 0.0 0.0 4.468642" Properties=species:S:1:pos:R:3:forces:R:3 energy=-31.67142102 stress="-0.018533929077789727 -0.0 -0.0 -0.0 -0.0020606979949260784 -0.0 -0.0 -0.0 -0.005873878377591665" free_energy=-31.67327283 pbc="T T T"
P        1.64556267       9.63349553       0.36711681       0.00000000      -0.02591945      -0.05088898
P        1.64556267       1.07935147       4.10152519      -0.00000000       0.02591945       0.05088898
P        0.00000000       1.07935147       2.60143781       0.00000000       0.02591945      -0.05088898
P        0.00000000       9.63349553       1.86720419       0.00000000      -0.02591945       0.05088898
P        0.00000000       4.27707203       0.36711681       0.00000000      -0.02591945      -0.05088898
P        0.00000000       6.43577497       4.10152519      -0.00000000       0.02591945       0.05088898
P        1.64556267       6.43577497       2.60143781      -0.00000000       0.02591945      -0.05088898
P        1.64556267       4.27707203       1.86720419      -0.00000000      -0.02591945       0.05088898
8
Lattice="3.341244 0.0 0.0 0.0 10.8735397 0.0 0.0 0.0 4.468642" Properties=species:S:1:pos:R:3:forces:R:3 energy=-31.67181774 stress="0.0018311784430701888 -0.0 -0.0 -0.0 0.012988615418448129 0.0 -0.0 0.0 0.001628443928171443" free_energy=-31.67340156 pbc="T T T"
P        1.67062200       9.77799795       0.36711681      -0.00000000       0.18299484      -0.02409545
P        1.67062200       1.09554175       4.10152519      -0.00000000      -0.18299484       0.02409545
P        0.00000000       1.09554175       2.60143781       0.00000000      -0.18299484      -0.02409545
P        0.00000000       9.77799795       1.86720419      -0.00000000       0.18299484       0.02409545
P        0.00000000       4.34122810       0.36711681       0.00000000       0.18299484      -0.02409545
P        0.00000000       6.53231160       4.10152519      -0.00000000      -0.18299484       0.02409545
P        1.67062200       6.53231160       2.60143781      -0.00000000      -0.18299484      -0.02409545
P        1.67062200       4.34122810       1.86720419       0.00000000       0.18299484       0.02409545
8
Lattice="3.341244 0.0 0.0 0.0 10.55215429 0.0 0.0 0.0 4.468642" Properties=species:S:1:pos:R:3:forces:R:3 energy=-31.67405513 stress="-0.001930870055047554 -0.0 -0.0 -0.0 -0.015367968450136058 -0.0 -0.0 -0.0 -0.002011676913866499" free_energy=-31.67570245 pbc="T T T"
P        1.67062200       9.48899309       0.36711681      -0.00000000      -0.21266105       0.03851282
P        1.67062200       1.06316120       4.10152519       0.00000000       0.21266105      -0.03851282
P        0.00000000       1.06316120       2.60143781      -0.00000000       0.21266105       0.03851282
P        0.00000000       9.48899309       1.86720419       0.00000000      -0.21266105      -0.03851282
P        0.00000000       4.21291594       0.36711681       0.00000000      -0.21266105       0.03851282
P        0.00000000       6.33923835       4.10152519      -0.00000000       0.21266105      -0.03851282
P        1.67062200       6.33923835       2.60143781      -0.00000000       0.21266105       0.03851282
P        1.67062200       4.21291594       1.86720419      -0.00000000      -0.21266105      -0.03851282
8
Lattice="3.341244 0.0 0.0 0.0 10.712847 0.0 0.0 0.0 4.53567163" Properties=species:S:1:pos:R:3:forces:R:3 energy=-31.67368485 stress="0.005038041720999253 -0.0 -0.0 -0.0 0.001610419741808281 -0.0 -0.0 -0.0 0.01174231166262191" free_energy=-31.67517282 pbc="T T T"
P        1.67062200       9.63349553       0.37262357      -0.00000000       0.03499506       0.19240580
P        1.67062200       1.07935147       4.16304806      -0.00000000      -0.03499506      -0.19240580
P        0.00000000       1.07935147       2.64045938       0.00000000      -0.03499506       0.19240580
P        0.00000000       9.63349553       1.89521225       0.00000000       0.03499506      -0.19240580
P        0.00000000       4.27707203       0.37262357      -0.00000000       0.03499506       0.19240580
P        0.00000000       6.43577497       4.16304806      -0.00000000      -0.03499506      -0.19240580
P        1.67062200       6.43577497       2.64045938      -0.00000000      -0.03499506       0.19240580
P        1.67062200       4.27707203       1.89521225       0.00000000       0.03499506      -0.19240580
8
Lattice="3.341244 0.0 0.0 0.0 10.712847 0.0 0.0 0.0 4.40161237" Properties=species:S:1:pos:R:3:forces:R:3 energy=-31.67715284 stress="-0.005999085771954862 -0.0 -0.0 -0.0 -0.002023242442759779 -0.0 -0.0 -0.0 -0.012359674609477364" free_energy=-31.67876578 pbc="T T T"
P        1.67062200       9.63349553       0.36161006       0.00000000      -0.03637665      -0.19892228
P        1.67062200       1.07935147       4.04000231      -0.00000000       0.03637665       0.19892228
P        0.00000000       1.07935147       2.56241625       0.00000000       0.03637665      -0.19892228
P        0.00000000       9.63349553       1.83919612      -0.00000000      -0.03637665       0.19892228
P        0.00000000       4.27707203       0.36161006       0.00000000      -0.03637665      -0.19892228
P        0.00000000       6.43577497       4.04000231      -0.00000000       0.03637665       0.19892228
P        1.67062200       6.43577497       2.56241625      -0.00000000       0.03637665      -0.19892228
P        1.67062200       4.27707203       1.83919612      -0.00000000      -0.03637665       0.19892228
8
Lattice="3.341244 0.05011866 0.0 0.0 10.712847 0.0 0.0 0.0 4.468642" Properties=species:S:1:pos:R:3:forces:R:3 energy=-31.68439517 stress="1.9105290641874284e-05 0.00448705778543339 -0.0 0.00448705778543339 -0.00022004440423301425 -0.0 -0.0 -0.0 -7.255160167170503e-05" free_energy=-31.68599175 pbc="T T T"
P        1.67062200       9.65855486       0.36711681       0.06143924      -0.00047529       0.00065133
P        1.67062200       1.10441080       4.10152519      -0.06143924       0.00047529      -0.00065133
P        0.00000000       1.07935147       2.60143781      -0.06143924       0.00047529       0.00065133
P        0.00000000       9.63349553       1.86720419       0.06143924      -0.00047529      -0.00065133
P        0.00000000       4.27707203       0.36711681       0.06143924      -0.00047529       0.00065133
P        0.00000000       6.43577497       4.10152519      -0.06143924       0.00047529      -0.00065133
P        1.67062200       6.46083430       2.60143781      -0.06143924       0.00047529       0.00065133
P        1.67062200       4.30213136       1.86720419       0.06143924      -0.00047529      -0.00065133
8
Lattice="3.341244 -0.05011866 0.0 0.0 10.712847 0.0 0.0 0.0 4.468642" Properties=species:S:1:pos:R:3:forces:R:3 energy=-31.68439512 stress="1.9092614136839615e-05 -0.004487092126216601 -0.0 -0.004487092126216601 -0.00022004983434595378 -0.0 -0.0 -0.0 -7.249353067079782e-05" free_energy=-31.6859917 pbc="T T T"
P        1.67062200       9.60843620       0.36711681      -0.06144330      -0.00047536       0.00065244
P        1.67062200       1.05429214       4.10152519       0.06144330       0.00047536      -0.00065244
P        0.00000000       1.07935147       2.60143781       0.06144330       0.00047536       0.00065244
P        0.00000000       9.63349553       1.86720419      -0.06144330      -0.00047536      -0.00065244
P        0.00000000       4.27707203       0.36711681      -0.06144330      -0.00047536       0.00065244
P        0.00000000       6.43577497       4.10152519       0.06144330       0.00047536      -0.00065244
P        1.67062200       6.41071564       2.60143781       0.06144330       0.00047536       0.00065244
P        1.67062200       4.25201270       1.86720419      -0.06144330      -0.00047536      -0.00065244
8
Lattice="3.341244 0.0 0.0 0.0 10.712847 0.1606927 0.0 0.0 4.468642" Properties=species:S:1:pos:R:3:forces:R:3 energy=-31.68438429 stress="-8.19115934512081e-05 -0.0 -0.0 -0.0 -0.0002741857946851399 0.004544111932156837 -0.0 0.004544111932156837 -3.6855543411010185e-05" free_energy=-31.68593703 pbc="T T T"
P        1.67062200       9.63349553       0.51161924      -0.00000000       0.01180007       0.08428810
P        1.67062200       1.07935147       4.11771546       0.00000000      -0.01180007      -0.08428810
P        0.00000000       1.07935147       2.61762809      -0.00000000       0.01608279      -0.08303270
P        0.00000000       9.63349553       2.01170661      -0.00000000      -0.01608279       0.08303270
P        0.00000000       4.27707203       0.43127289      -0.00000000       0.01180007       0.08428810
P        0.00000000       6.43577497       4.19806181      -0.00000000      -0.01180007      -0.08428810
P        1.67062200       6.43577497       2.69797444      -0.00000000       0.01608279      -0.08303270
P        1.67062200       4.27707203       1.93136026      -0.00000000      -0.01608279       0.08303270
8
Lattice="3.341244 0.0 0.0 0.0 10.712847 -0.1606927 0.0 0.0 4.468642" Properties=species:S:1:pos:R:3:forces:R:3 energy=-31.68438443 stress="-8.189286892383045e-05 -0.0 -0.0 -0.0 -0.0002740389444584261 -0.004541007705110061 -0.0 -0.004541007705110061 -3.693071614692232e-05" free_energy=-31.68593716 pbc="T T T"
P        1.67062200       9.63349553       0.22261439      -0.00000000      -0.01609744      -0.08302186
P        1.67062200       1.07935147       4.08533491       0.00000000       0.01609744       0.08302186
P        0.00000000       1.07935147       2.58524754      -0.00000000      -0.01181790       0.08427769
P        0.00000000       9.63349553       1.72270176       0.00000000       0.01181790      -0.08427769
P        0.00000000       4.27707203       0.30296074      -0.00000000      -0.01609744      -0.08302186
P        0.00000000       6.43577497       4.00498856       0.00000000       0.01609744       0.08302186
P        1.67062200       6.43577497       2.50490119      -0.00000000      -0.01181790       0.08427769
P        1.67062200       4.27707203       1.80304811       0.00000000       0.01181790      -0.08427769
8
Lattice="3.341244 0.0 0.0 0.0 10.712847 0.0 0.06702963 0.0 4.468642" Properties=species:S:1:pos:R:3:forces:R:3 energy=-31.67797365 stress="-0.00021980707709001168 -0.0 0.009937923555550112 -0.0 -0.0001584292247837549 -0.0 0.009937923555550112 -0.0 -0.0005063207011440121" free_energy=-31.67957364 pbc="T T T"
P        1.67612875       9.63349553       0.36711681       0.16059878      -0.00024108      -0.00617384
P        1.73214488       1.07935147       4.10152519      -0.16059878       0.00024108       0.00617384
P        0.03902157       1.07935147       2.60143781       0.16059878       0.00024108      -0.00617384
P        0.02800806       9.63349553       1.86720419      -0.16059878      -0.00024108       0.00617384
P        0.00550675       4.27707203       0.36711681       0.16059878      -0.00024108      -0.00617384
P        0.06152288       6.43577497       4.10152519      -0.16059878       0.00024108       0.00617384
P        1.70964357       6.43577497       2.60143781       0.16059878       0.00024108      -0.00617384
P        1.69863006       4.27707203       1.86720419      -0.16059878      -0.00024108       0.00617384
8
Lattice="3.341244 0.0 0.0 0.0 10.712847 0.0 -0.06702963 0.0 4.468642" Properties=species:S:1:pos:R:3:forces:R:3 energy=-31.67797358 stress="-0.00021989355319895082 -0.0 -0.009936572736937543 -0.0 -0.00015861661361224127 -0.0 -0.009936572736937543 -0.0 -0.0005063474584936348" free_energy=-31.67957358 pbc="T T T"
P        1.66511525       9.63349553       0.36711681      -0.16055594      -0.00024050      -0.00617319
P        1.60909912       1.07935147       4.10152519       0.16055594       0.00024050       0.00617319
P       -0.03902157       1.07935147       2.60143781      -0.16055594       0.00024050      -0.00617319
P       -0.02800806       9.63349553       1.86720419       0.16055594      -0.00024050       0.00617319
P       -0.00550675       4.27707203       0.36711681      -0.16055594      -0.00024050      -0.00617319
P       -0.06152288       6.43577497       4.10152519       0.16055594       0.00024050       0.00617319
P        1.63160043       6.43577497       2.60143781      -0.16055594       0.00024050      -0.00617319
P        1.64261394       4.27707203       1.86720419       0.16055594      -0.00024050       0.00617319
8
Lattice="3.341244 0.0 0.0 0.0 10.712847 0.0 0.0 0.0 4.468642" Properties=species:S:1:pos:R:3:forces:R:3 energy=-31.68865016 stress="-5.9170692400107204e-05 -0.0003841844475877151 -0.001000261175450052 -0.0003841844475877151 -0.00017460137438550245 -1.5526253271364676e-06 -0.001000261175450052 -1.5526253271364676e-06 -9.731396524944225e-05" free_energy=-31.69022029 pbc="T T T"
P        1.68562201       9.63349553       0.36711681      -0.15396157      -0.00036260      -0.00240498
P        1.67062200       1.07935147       4.10152519       0.01706533       0.00025568      -0.00063763
P        0.00000000       1.07935147       2.60143781       0.01143348       0.00032542       0.00079426
P        0.00000000       9.63349553       1.86720419       0.12379694      -0.00018983       0.00223253
P        0.00000000       4.27707203       0.36711681       0.00090611      -0.00023465       0.00067931
P        0.00000000       6.43577497       4.10152519       0.00130938       0.00021002      -0.00066645
P        1.67062200       6.43577497       2.60143781      -0.00049722       0.00022830       0.00068366
P        1.67062200       4.27707203       1.86720419      -0.00005245      -0.00023234      -0.00068069
8
Lattice="3.341244 0.0 0.0 0.0 10.712847 0.0 0.0 0.0 4.468642" Properties=species:S:1:pos:R:3:forces:R:3 energy=-31.68865075 stress="-5.895587213901255e-05 0.00038351584464713226 0.0010097905680287406 0.00038351584464713226 -0.00017444098008398553 -1.6946446257868153e-06 0.0010097905680287406 -1.6946446257868153e-06 -9.718601431236165e-05" free_energy=-31.69022087 pbc="T T T"
P        1.65562199       9.63349553       0.36711681       0.15420633      -0.00035813      -0.00239954
P        1.67062200       1.07935147       4.10152519      -0.01699419       0.00025328      -0.00063116
P        0.00000000       1.07935147       2.60143781      -0.01146516       0.00032476       0.00078759
P        0.00000000       9.63349553       1.86720419      -0.12399171      -0.00019008       0.00223301
P        0.00000000       4.27707203       0.36711681      -0.00094754      -0.00023423       0.00067793
P        0.00000000       6.43577497       4.10152519      -0.00130736       0.00020851      -0.00066820
P        1.67062200       6.43577497       2.60143781       0.00045112       0.00022787       0.00068226
P        1.67062200       4.27707203       1.86720419       0.00004852      -0.00023198      -0.00068188
8
Lattice="3.341244 0.0 0.0 0.0 10.712847 0.0 0.0 0.0 4.468642" Properties=species:S:1:pos:R:3:forces:R:3 energy=-31.68903887 stress="-0.00019098879363700175 -0.0 -0.0 -0.0 -0.0014398731575848995 -7.416047547908396e-05 -0.0 -7.416047547908396e-05 -0.00028695343823606495" free_energy=-31.69058206 pbc="T T T"
P        1.67062200       9.64849555       0.36711681       0.00000000      -0.13406095       0.00715110
P        1.67062200       1.07935147       4.10152519       0.00000000       0.11286006      -0.00699928
P        0.00000000       1.07935147       2.60143781       0.00000000      -0.01050295       0.01323873
P        0.00000000       9.63349553       1.86720419       0.00000000       0.02590685      -0.01490215
P        0.00000000       4.27707203       0.36711681       0.00000000       0.00248283      -0.00027134
P        0.00000000       6.43577497       4.10152519       0.00000000       0.00454627       0.00043901
P        1.67062200       6.43577497       2.60143781       0.00000000      -0.00192248       0.00256641
P        1.67062200       4.27707203       1.86720419       0.00000000       0.00069038      -0.00122248
8
Lattice="3.341244 0.0 0.0 0.0 10.712847 0.0 0.0 0.0 4.468642" Properties=species:S:1:pos:R:3:forces:R:3 energy=-31.68860392 stress="0.00011906845195677942 -0.0 -0.0 -0.0 0.0010254428560938843 9.925893808174086e-05 -0.0 9.925893808174086e-05 0.00016070803097316047" free_energy=-31.69019671 pbc="T T T"
P        1.67062200       9.61849550       0.36711681       0.00000000       0.12710927      -0.00278341
P        1.67062200       1.07935147       4.10152519       0.00000000      -0.10578354       0.00332269
P        0.00000000       1.07935147       2.60143781       0.00000000       0.01105649      -0.01143888
P        0.00000000       9.63349553       1.86720419       0.00000000      -0.02641642       0.01249760
P        0.00000000       4.27707203       0.36711681       0.00000000      -0.00300065       0.00156007
P        0.00000000       6.43577497       4.10152519       0.00000000      -0.00413453      -0.00178561
P        1.67062200       6.43577497       2.60143781       0.00000000       0.00233730      -0.00125490
P        1.67062200       4.27707203       1.86720419       0.00000000      -0.00116794      -0.00011756
8
Lattice="3.341244 0.0 0.0 0.0 10.712847 0.0 0.0 0.0 4.468642" Properties=species:S:1:pos:R:3:forces:R:3 energy=-31.68851187 stress="-0.00035500877532215703 -0.0 -0.0 -0.0 2.092969624238821e-05 -0.000523154132396138 -0.0 -0.000523154132396138 -0.001298178080367605" free_energy=-31.6900786 pbc="T T T"
P        1.67062200       9.63349553       0.38211679       0.00000000       0.00456807      -0.18637308
P        1.67062200       1.07935147       4.10152519       0.00000000      -0.00490955       0.01022817
P        0.00000000       1.07935147       2.60143781       0.00000000      -0.01206162       0.02871266
P        0.00000000       9.63349553       1.86720419       0.00000000       0.01358129       0.14706189
P        0.00000000       4.27707203       0.36711681       0.00000000      -0.00114746      -0.00050837
P        0.00000000       6.43577497       4.10152519       0.00000000       0.00133445       0.00076844
P        1.67062200       6.43577497       2.60143781       0.00000000      -0.00169895       0.00138691
P        1.67062200       4.27707203       1.86720419       0.00000000       0.00033376      -0.00127663
8
Lattice="3.341244 0.0 0.0 0.0 10.712847 0.0 0.0 0.0 4.468642" Properties=species:S:1:pos:R:3:forces:R:3 energy=-31.68830843 stress="0.00021796992632786268 -0.0 -0.0 -0.0 -0.00036577542225486957 0.0005233892687694372 -0.0 0.0005233892687694372 0.001147967918219669" free_energy=-31.68988603 pbc="T T T"
P        1.67062200       9.63349553       0.35211683       0.00000000      -0.00530744       0.18308445
P        1.67062200       1.07935147       4.10152519       0.00000000       0.00535127      -0.01152904
P        0.00000000       1.07935147       2.60143781       0.00000000       0.01262408      -0.02742839
P        0.00000000       9.63349553       1.86720419       0.00000000      -0.01382134      -0.14377347
P        0.00000000       4.27707203       0.36711681       0.00000000       0.00068318       0.00187030
P        0.00000000       6.43577497       4.10152519       0.00000000      -0.00088806      -0.00211864
P        1.67062200       6.43577497       2.60143781       0.00000000       0.00213322      -0.00002838
P        1.67062200       4.27707203       1.86720419       0.00000000      -0.00077490      -0.00007682
