8
Lattice="3.341244 0.0 0.0 0.0 10.712847 0.0 0.0 0.0 4.468642" Properties=species:S:1:pos:R:3:forces:R:3 energy=-31.68979421 stress="-4.0999100315919435e-05 -0.0 -0.0 -0.0 -0.0001722592980180878 -0.0 -0.0 -0.0 -6.823475550742478e-05" free_energy=-31.69136345 pbc="T T T"
P        1.67062200       9.63349553       0.36711681       0.00000000      -0.00022044       0.00067210
P        1.67062200       1.07935147       4.10152519      -0.00000000       0.00022044      -0.00067210
P        0.00000000       1.07935147       2.60143781      -0.00000000       0.00022044       0.00067210
P        0.00000000       9.63349553       1.86720419      -0.00000000      -0.00022044      -0.00067210
P        0.00000000       4.27707203       0.36711681       0.00000000      -0.00022044       0.00067210
P        0.00000000       6.43577497       4.10152519       0.00000000       0.00022044      -0.00067210
P        1.67062200       6.43577497       2.60143781      -0.00000000       0.00022044       0.00067210
P        1.67062200       4.27707203       1.86720419       0.00000000      -0.00022044      -0.00067210
8
Lattice="3.39136266 0.0 0.0 0.0 10.712847 0.0 0.0 0.0 4.468642" Properties=species:S:1:pos:R:3:forces:R:3 energy=-31.66706305 stress="0.016226618371836376 -0.0 -0.0 -0.0 0.0017116271292429036 0.0 -0.0 0.0 0.005163441491156729" free_energy=-31.66827892 pbc="T T T"
P        1.69568133       9.63349553       0.36711681      -0.00000000       0.02352832       0.04142333
P        1.69568133       1.07935147       4.10152519       0.00000000      -0.02352832      -0.04142333
P        0.00000000       1.07935147       2.60143781       0.00000000      -0.02352832       0.04142333
P        0.00000000       9.63349553       1.86720419       0.00000000       0.02352832      -0.04142333
P        0.00000000       4.27707203       0.36711681       0.00000000       0.02352832       0.04142333
P        0.00000000       6.43577497       4.10152519      -0.00000000      -0.02352832      -0.04142333
P        1.69568133       6.43577497       2.60143781       0.00000000      -0.02352832       0.04142333
P        1.69568133       4.27707203       1.86720419       0.00000000       0.02352832      -0.04142333
8
Lattice="3.29112534 0.0 0.0 0.0 10.712847 0.0 0.0 0.0 4.468642" Properties=species:S:1:pos:R:3:forces:R:3 energy=-31.67142102 stress="-0.01853392897792558 -0.0 -0.0 -0.0 -0.0020606979574770237 -0.0 -0.0 -0.0 -0.005873878390074684" free_energy=-31.67327283 pbc="T T T"
P        1.64556267       9.63349553       0.36711681      -0.00000000      -0.02591945      -0.05088898
P        1.64556267       1.07935147       4.10152519       0.00000000       0.02591945       0.05088898
P        0.00000000       1.07935147       2.60143781       0.00000000       0.02591945      -0.05088898
P        0.00000000       9.63349553       1.86720419       0.00000000      -0.02591945       0.05088898
P        0.00000000       4.27707203       0.36711681       0.00000000      -0.02591945      -0.05088898
P        0.00000000       6.43577497       4.10152519      -0.00000000       0.02591945       0.05088898
P        1.64556267       6.43577497       2.60143781      -0.00000000       0.02591945      -0.05088898
P        1.64556267       4.27707203       1.86720419       0.00000000      -0.02591945       0.05088898
8
Lattice="3.341244 0.0 0.0 0.0 10.8735397 0.0 0.0 0.0 4.468642" Properties=species:S:1:pos:R:3:forces:R:3 energy=-31.67181774 stress="0.0018311786240739535 -0.0 -0.0 -0.0 0.012988615699316041 -0.0 -0.0 -0.0 0.00162844373468466" free_energy=-31.67340156 pbc="T T T"
P        1.67062200       9.77799795       0.36711681       0.00000000       0.18299484      -0.02409545
P        1.67062200       1.09554175       4.10152519       0.00000000      -0.18299484       0.02409545
P        0.00000000       1.09554175       2.60143781       0.00000000      -0.18299484      -0.02409545
P        0.00000000       9.77799795       1.86720419       0.00000000       0.18299484       0.02409545
P        0.00000000       4.34122810       0.36711681      -0.00000000       0.18299484      -0.02409545
P        0.00000000       6.53231160       4.10152519      -0.00000000      -0.18299484       0.02409545
P        1.67062200       6.53231160       2.60143781       0.00000000      -0.18299484      -0.02409545
P        1.67062200       4.34122810       1.86720419       0.00000000       0.18299484       0.02409545
8
Lattice="3.341244 0.0 0.0 0.0 10.55215429 0.0 0.0 0.0 4.468642" Properties=species:S:1:pos:R:3:forces:R:3 energy=-31.67405513 stress="-0.001930869998873972 -0.0 -0.0 -0.0 -0.015367968487585112 -0.0 -0.0 -0.0 -0.002011676614274061" free_energy=-31.67570245 pbc="T T T"
P        1.67062200       9.48899309       0.36711681       0.00000000      -0.21266105       0.03851282
P        1.67062200       1.06316120       4.10152519      -0.00000000       0.21266105      -0.03851282
P        0.00000000       1.06316120       2.60143781       0.00000000       0.21266105       0.03851282
P        0.00000000       9.48899309       1.86720419      -0.00000000      -0.21266105      -0.03851282
P        0.00000000       4.21291594       0.36711681      -0.00000000      -0.21266105       0.03851282
P        0.00000000       6.33923835       4.10152519       0.00000000       0.21266105      -0.03851282
P        1.67062200       6.33923835       2.60143781      -0.00000000       0.21266105       0.03851282
P        1.67062200       4.21291594       1.86720419       0.00000000      -0.21266105      -0.03851282
8
Lattice="3.341244 0.0 0.0 0.0 10.712847 0.0 0.0 0.0 4.53567163" Properties=species:S:1:pos:R:3:forces:R:3 energy=-31.67368485 stress="0.005038041852070945 -0.0 -0.0 -0.0 0.0016104196606686622 -0.0 -0.0 -0.0 0.011742311756244546" free_energy=-31.67517282 pbc="T T T"
P        1.67062200       9.63349553       0.37262357       0.00000000       0.03499506       0.19240580
P        1.67062200       1.07935147       4.16304806       0.00000000      -0.03499506      -0.19240580
P        0.00000000       1.07935147       2.64045938      -0.00000000      -0.03499506       0.19240580
P        0.00000000       9.63349553       1.89521225       0.00000000       0.03499506      -0.19240580
P        0.00000000       4.27707203       0.37262357      -0.00000000       0.03499506       0.19240580
P        0.00000000       6.43577497       4.16304806       0.00000000      -0.03499506      -0.19240580
P        1.67062200       6.43577497       2.64045938      -0.00000000      -0.03499506       0.19240580
P        1.67062200       4.27707203       1.89521225       0.00000000       0.03499506      -0.19240580
8
Lattice="3.341244 0.0 0.0 0.0 10.712847 0.0 0.0 0.0 4.40161237" Properties=species:S:1:pos:R:3:forces:R:3 energy=-31.67715284 stress="-0.005999085697056752 -0.0 -0.0 -0.0 -0.0020232424177937425 -0.0 -0.0 -0.0 -0.012359675002692439" free_energy=-31.67876578 pbc="T T T"
P        1.67062200       9.63349553       0.36161006       0.00000000      -0.03637665      -0.19892228
P        1.67062200       1.07935147       4.04000231       0.00000000       0.03637665       0.19892228
P        0.00000000       1.07935147       2.56241625      -0.00000000       0.03637665      -0.19892228
P        0.00000000       9.63349553       1.83919612      -0.00000000      -0.03637665       0.19892228
P        0.00000000       4.27707203       0.36161006      -0.00000000      -0.03637665      -0.19892228
P        0.00000000       6.43577497       4.04000231       0.00000000       0.03637665       0.19892228
P        1.67062200       6.43577497       2.56241625      -0.00000000       0.03637665      -0.19892228
P        1.67062200       4.27707203       1.83919612       0.00000000      -0.03637665       0.19892228
8
Lattice="3.341244 0.05011866 0.0 0.0 10.712847 0.0 0.0 0.0 4.468642" Properties=species:S:1:pos:R:3:forces:R:3 energy=-31.68439517 stress="1.910559647582145e-05 0.004487058022610737 -0.0 0.004487058022610737 -0.0002200443605424504 -0.0 -0.0 -0.0 -7.255195743772522e-05" free_energy=-31.68599175 pbc="T T T"
P        1.67062200       9.65855486       0.36711681       0.06143924      -0.00047529       0.00065133
P        1.67062200       1.10441080       4.10152519      -0.06143924       0.00047529      -0.00065133
P        0.00000000       1.07935147       2.60143781      -0.06143924       0.00047529       0.00065133
P        0.00000000       9.63349553       1.86720419       0.06143924      -0.00047529      -0.00065133
P        0.00000000       4.27707203       0.36711681       0.06143924      -0.00047529       0.00065133
P        0.00000000       6.43577497       4.10152519      -0.06143924       0.00047529      -0.00065133
P        1.67062200       6.46083430       2.60143781      -0.06143924       0.00047529       0.00065133
P        1.67062200       4.30213136       1.86720419       0.06143924      -0.00047529      -0.00065133
8
Lattice="3.341244 -0.05011866 0.0 0.0 10.712847 0.0 0.0 0.0 4.468642" Properties=species:S:1:pos:R:3:forces:R:3 energy=-31.68439512 stress="1.9092582929293983e-05 -0.004487092544397712 -0.0 -0.004487092544397712 -0.00022004972199878952 -0.0 -0.0 -0.0 -7.249341832363356e-05" free_energy=-31.6859917 pbc="T T T"
P        1.67062200       9.60843620       0.36711681      -0.06144330      -0.00047536       0.00065244
P        1.67062200       1.05429214       4.10152519       0.06144330       0.00047536      -0.00065244
P        0.00000000       1.07935147       2.60143781       0.06144330       0.00047536       0.00065244
P        0.00000000       9.63349553       1.86720419      -0.06144330      -0.00047536      -0.00065244
P        0.00000000       4.27707203       0.36711681      -0.06144330      -0.00047536       0.00065244
P        0.00000000       6.43577497       4.10152519       0.06144330       0.00047536      -0.00065244
P        1.67062200       6.41071564       2.60143781       0.06144330       0.00047536       0.00065244
P        1.67062200       4.25201270       1.86720419      -0.06144330      -0.00047536      -0.00065244
8
Lattice="3.341244 0.0 0.0 0.0 10.712847 0.1606927 0.0 0.0 4.468642" Properties=species:S:1:pos:R:3:forces:R:3 energy=-31.68438429 stress="-8.191193673421004e-05 -0.0 -0.0 -0.0 -0.00027418559495684787 0.004544113398911482 -0.0 0.004544113398911482 -3.6855518444973684e-05" free_energy=-31.68593703 pbc="T T T"
P        1.67062200       9.63349553       0.51161924      -0.00000000       0.01180009       0.08428810
P        1.67062200       1.07935147       4.11771546       0.00000000      -0.01180009      -0.08428810
P        0.00000000       1.07935147       2.61762809       0.00000000       0.01608281      -0.08303271
P        0.00000000       9.63349553       2.01170661      -0.00000000      -0.01608281       0.08303271
P        0.00000000       4.27707203       0.43127289       0.00000000       0.01180009       0.08428810
P        0.00000000       6.43577497       4.19806181       0.00000000      -0.01180009      -0.08428810
P        1.67062200       6.43577497       2.69797444      -0.00000000       0.01608281      -0.08303271
P        1.67062200       4.27707203       1.93136026      -0.00000000      -0.01608281       0.08303271
8
Lattice="3.341244 0.0 0.0 0.0 10.712847 -0.1606927 0.0 0.0 4.468642" Properties=species:S:1:pos:R:3:forces:R:3 energy=-31.68438443 stress="-8.189288764835783e-05 -0.0 -0.0 -0.0 -0.0002740388695603166 -0.004541007811215716 -0.0 -0.004541007811215716 -3.693077856201358e-05" free_energy=-31.68593716 pbc="T T T"
P        1.67062200       9.63349553       0.22261439       0.00000000      -0.01609744      -0.08302186
P        1.67062200       1.07935147       4.08533491      -0.00000000       0.01609744       0.08302186
P        0.00000000       1.07935147       2.58524754       0.00000000      -0.01181790       0.08427769
P        0.00000000       9.63349553       1.72270176      -0.00000000       0.01181790      -0.08427769
P        0.00000000       4.27707203       0.30296074       0.00000000      -0.01609744      -0.08302186
P        0.00000000       6.43577497       4.00498856      -0.00000000       0.01609744       0.08302186
P        1.67062200       6.43577497       2.50490119      -0.00000000      -0.01181790       0.08427769
P        1.67062200       4.27707203       1.80304811      -0.00000000       0.01181790      -0.08427769
8
Lattice="3.341244 0.0 0.0 0.0 10.712847 0.0 0.06702963 0.0 4.468642" Properties=species:S:1:pos:R:3:forces:R:3 energy=-31.67797365 stress="-0.00021980680870511927 -0.0 0.009937924335738754 -0.0 -0.0001584295181346838 -0.0 0.009937924335738754 -0.0 -0.0005063207760421216" free_energy=-31.67957364 pbc="T T T"
P        1.67612875       9.63349553       0.36711681       0.16059878      -0.00024108      -0.00617384
P        1.73214488       1.07935147       4.10152519      -0.16059878       0.00024108       0.00617384
P        0.03902157       1.07935147       2.60143781       0.16059878       0.00024108      -0.00617384
P        0.02800806       9.63349553       1.86720419      -0.16059878      -0.00024108       0.00617384
P        0.00550675       4.27707203       0.36711681       0.16059878      -0.00024108      -0.00617384
P        0.06152288       6.43577497       4.10152519      -0.16059878       0.00024108       0.00617384
P        1.70964357       6.43577497       2.60143781       0.16059878       0.00024108      -0.00617384
P        1.69863006       4.27707203       1.86720419      -0.16059878      -0.00024108       0.00617384
8
Lattice="3.341244 0.0 0.0 0.0 10.712847 0.0 -0.06702963 0.0 4.468642" Properties=species:S:1:pos:R:3:forces:R:3 energy=-31.67797358 stress="-0.0002198934720593322 -0.0 -0.009936572936665836 -0.0 -0.00015861690072166106 -0.0 -0.009936572936665836 -0.0 -0.00050634742104458" free_energy=-31.67957358 pbc="T T T"
P        1.66511525       9.63349553       0.36711681      -0.16055594      -0.00024050      -0.00617319
P        1.60909912       1.07935147       4.10152519       0.16055594       0.00024050       0.00617319
P       -0.03902157       1.07935147       2.60143781      -0.16055594       0.00024050      -0.00617319
P       -0.02800806       9.63349553       1.86720419       0.16055594      -0.00024050       0.00617319
P       -0.00550675       4.27707203       0.36711681      -0.16055594      -0.00024050      -0.00617319
P       -0.06152288       6.43577497       4.10152519       0.16055594       0.00024050       0.00617319
P        1.63160043       6.43577497       2.60143781      -0.16055594       0.00024050      -0.00617319
P        1.64261394       4.27707203       1.86720419       0.16055594      -0.00024050       0.00617319
8
Lattice="3.341244 0.0 0.0 0.0 10.712847 0.0 0.0 0.0 4.468642" Properties=species:S:1:pos:R:3:forces:R:3 energy=-31.68865016 stress="-5.9170823471798845e-05 -0.0003841846722820436 -0.001000263809366903 -0.0003841846722820436 -0.00017460136814399332 -1.552762640337237e-06 -0.001000263809366903 -1.552762640337237e-06 -9.731401518151526e-05" free_energy=-31.69022029 pbc="T T T"
P        1.68562201       9.63349553       0.36711681      -0.15396157      -0.00036260      -0.00240498
P        1.67062200       1.07935147       4.10152519       0.01706534       0.00025568      -0.00063764
P        0.00000000       1.07935147       2.60143781       0.01143347       0.00032542       0.00079427
P        0.00000000       9.63349553       1.86720419       0.12379694      -0.00018983       0.00223253
P        0.00000000       4.27707203       0.36711681       0.00090610      -0.00023465       0.00067931
P        0.00000000       6.43577497       4.10152519       0.00130939       0.00021002      -0.00066645
P        1.67062200       6.43577497       2.60143781      -0.00049722       0.00022830       0.00068366
P        1.67062200       4.27707203       1.86720419      -0.00005245      -0.00023234      -0.00068069
8
Lattice="3.341244 0.0 0.0 0.0 10.712847 0.0 0.0 0.0 4.468642" Properties=species:S:1:pos:R:3:forces:R:3 energy=-31.68865075 stress="-5.895571610128441e-05 0.000383515981960333 0.0010097910236589068 0.000383515981960333 -0.00017444096135945812 -1.6945634861681788e-06 0.0010097910236589068 -1.6945634861681788e-06 -9.718623276518105e-05" free_energy=-31.69022087 pbc="T T T"
P        1.65562199       9.63349553       0.36711681       0.15420633      -0.00035813      -0.00239954
P        1.67062200       1.07935147       4.10152519      -0.01699419       0.00025328      -0.00063116
P        0.00000000       1.07935147       2.60143781      -0.01146516       0.00032476       0.00078759
P        0.00000000       9.63349553       1.86720419      -0.12399171      -0.00019008       0.00223301
P        0.00000000       4.27707203       0.36711681      -0.00094754      -0.00023423       0.00067793
P        0.00000000       6.43577497       4.10152519      -0.00130736       0.00020851      -0.00066820
P        1.67062200       6.43577497       2.60143781       0.00045112       0.00022787       0.00068226
P        1.67062200       4.27707203       1.86720419       0.00004852      -0.00023198      -0.00068188
8
Lattice="3.341244 0.0 0.0 0.0 10.712847 0.0 0.0 0.0 4.468642" Properties=species:S:1:pos:R:3:forces:R:3 energy=-31.68903887 stress="-0.0001909890432973668 -0.0 -0.0 -0.0 -0.0014398734010037555 -7.416068144888512e-05 -0.0 -7.416068144888512e-05 -0.0002869533508549372" free_energy=-31.69058206 pbc="T T T"
P        1.67062200       9.64849555       0.36711681       0.00000000      -0.13406095       0.00715110
P        1.67062200       1.07935147       4.10152519       0.00000000       0.11286005      -0.00699928
P        0.00000000       1.07935147       2.60143781       0.00000000      -0.01050295       0.01323873
P        0.00000000       9.63349553       1.86720419       0.00000000       0.02590685      -0.01490215
P        0.00000000       4.27707203       0.36711681       0.00000000       0.00248283      -0.00027134
P        0.00000000       6.43577497       4.10152519       0.00000000       0.00454627       0.00043901
P        1.67062200       6.43577497       2.60143781       0.00000000      -0.00192248       0.00256641
P        1.67062200       4.27707203       1.86720419       0.00000000       0.00069038      -0.00122248
8
Lattice="3.341244 0.0 0.0 0.0 10.712847 0.0 0.0 0.0 4.468642" Properties=species:S:1:pos:R:3:forces:R:3 energy=-31.68860392 stress="0.00011906852685488895 -0.0 -0.0 -0.0 0.001025442500327864 9.925905042890513e-05 -0.0 9.925905042890513e-05 0.00016070793735052362" free_energy=-31.69019671 pbc="T T T"
P        1.67062200       9.61849550       0.36711681       0.00000000       0.12710927      -0.00278341
P        1.67062200       1.07935147       4.10152519       0.00000000      -0.10578354       0.00332269
P        0.00000000       1.07935147       2.60143781       0.00000000       0.01105650      -0.01143888
P        0.00000000       9.63349553       1.86720419       0.00000000      -0.02641642       0.01249760
P        0.00000000       4.27707203       0.36711681       0.00000000      -0.00300064       0.00156007
P        0.00000000       6.43577497       4.10152519       0.00000000      -0.00413453      -0.00178560
P        1.67062200       6.43577497       2.60143781       0.00000000       0.00233730      -0.00125490
P        1.67062200       4.27707203       1.86720419       0.00000000      -0.00116794      -0.00011756
8
Lattice="3.341244 0.0 0.0 0.0 10.712847 0.0 0.0 0.0 4.468642" Properties=species:S:1:pos:R:3:forces:R:3 energy=-31.68851187 stress="-0.00035500870666555666 -0.0 -0.0 -0.0 2.0930052008408388e-05 -0.0005231541636036836 -0.0 -0.0005231541636036836 -0.0012981782800958969" free_energy=-31.6900786 pbc="T T T"
P        1.67062200       9.63349553       0.38211679       0.00000000       0.00456807      -0.18637308
P        1.67062200       1.07935147       4.10152519       0.00000000      -0.00490955       0.01022817
P        0.00000000       1.07935147       2.60143781       0.00000000      -0.01206162       0.02871266
P        0.00000000       9.63349553       1.86720419       0.00000000       0.01358129       0.14706189
P        0.00000000       4.27707203       0.36711681       0.00000000      -0.00114746      -0.00050837
P        0.00000000       6.43577497       4.10152519       0.00000000       0.00133445       0.00076844
P        1.67062200       6.43577497       2.60143781       0.00000000      -0.00169896       0.00138691
P        1.67062200       4.27707203       1.86720419       0.00000000       0.00033376      -0.00127663
8
Lattice="3.341244 0.0 0.0 0.0 10.712847 0.0 0.0 0.0 4.468642" Properties=species:S:1:pos:R:3:forces:R:3 energy=-31.68830843 stress="0.00021796978901466191 -0.0 -0.0 -0.0 -0.0003657756719152346 0.0005233894872222568 -0.0 0.0005233894872222568 0.0011479678308385414" free_energy=-31.68988603 pbc="T T T"
P        1.67062200       9.63349553       0.35211683       0.00000000      -0.00530745       0.18308445
P        1.67062200       1.07935147       4.10152519       0.00000000       0.00535127      -0.01152904
P        0.00000000       1.07935147       2.60143781       0.00000000       0.01262408      -0.02742839
P        0.00000000       9.63349553       1.86720419       0.00000000      -0.01382134      -0.14377347
P        0.00000000       4.27707203       0.36711681       0.00000000       0.00068318       0.00187030
P        0.00000000       6.43577497       4.10152519       0.00000000      -0.00088806      -0.00211864
P        1.67062200       6.43577497       2.60143781       0.00000000       0.00213322      -0.00002838
P        1.67062200       4.27707203       1.86720419       0.00000000      -0.00077490      -0.00007682
