8
Lattice="6.000838 -0.00371 0.02002 0.019938 6.776256 0.729356 -0.004502 0.083245 6.814914" Properties=species:S:1:pos:R:3:forces:R:3 energy=-29.94664583 stress="0.0003399208944442488 5.679044296287862e-05 6.300744792393365e-05 5.679044296287862e-05 0.00013602128327848336 -7.389122925841161e-05 6.300744792393365e-05 -7.389122925841161e-05 0.00012239965772442758" free_energy=-29.94664583 pbc="T T T"
P        1.47259361       1.11374632       1.23083329      -0.16641204      -0.31048459      -0.34214512
P        4.54368039       5.74204468       6.33345671       0.16641204       0.31048459       0.34214512
P        3.30318971       1.93326582       2.13950819       0.49228193      -0.00361628      -0.00200017
P        2.71308429       4.92252518       5.42478181      -0.49228193       0.00361628       0.00200017
P        1.52403946       3.21173646       1.90068112      -0.15208867       0.45631239      -0.08170195
P        4.49818796       5.27442517       4.18120955       0.15420775       0.12400673      -0.44594782
P        4.49223454       3.64405454       5.66360888       0.15208867      -0.45631239       0.08170195
P        1.51808604       1.58136583       3.38308045      -0.15420775      -0.12400673       0.44594782
8
Lattice="5.99743198 -0.00427544 0.01938444 0.01920775 6.77480579 0.73004055 -0.00522395 0.08406693 6.81353263" Properties=species:S:1:pos:R:3:forces:R:3 energy=-29.94691757 stress="0.011633387647794594 4.704491316466974e-05 5.221507349060427e-05 4.704491316466974e-05 0.011619121636355362 0.00011405713803809863 5.221507349060427e-05 0.00011405713803809863 0.01164123985324852" free_energy=-29.94691757 pbc="T T T"
P        1.46350278       1.09852922       1.21406073       0.13911387       0.24311554       0.26794174
P        4.54791300       5.75606806       6.34889689      -0.13911387      -0.24311554      -0.26794174
P        3.32464314       1.93260106       2.13886324      -0.36475888       0.01459209       0.01458372
P        2.68677264       4.92199622       5.42409438       0.36475888      -0.01459209      -0.01458372
P        1.51533594       3.23310628       1.89659141       0.12240544      -0.34624148       0.07512494
P        4.50213343       5.27929485       4.15902348      -0.12406099      -0.10713772       0.33710589
P        4.49607984       3.62149100       5.66636621      -0.12240544       0.34624148      -0.07512494
P        1.50928235       1.57530243       3.40393414       0.12406099       0.10713772      -0.33710589
8
Lattice="5.9992566 -0.00397253 0.01972491 0.01959895 6.77558267 0.72967383 -0.0048372 0.08362662 6.81427264" Properties=species:S:1:pos:R:3:forces:R:3 energy=-29.96656391 stress="0.005744452060100863 5.257472172945591e-05 5.833062272081808e-05 5.257472172945591e-05 0.005632658498969903 1.6217026052362677e-05 5.833062272081808e-05 1.6217026052362677e-05 0.005636175327218956" free_energy=-29.96656391 pbc="T T T"
P        1.46837497       1.10668168       1.22304652      -0.01873024      -0.04273182      -0.04707248
P        4.54564338       5.74855508       6.34062486       0.01873024       0.04273182       0.04707248
P        3.31314659       1.93295652       2.13920801       0.07818964       0.00515769       0.00598654
P        2.70087176       4.92228024       5.42446337      -0.07818964      -0.00515769      -0.00598654
P        1.51999919       3.22165700       1.89878353      -0.01952495       0.06839437      -0.00599897
P        4.50001907       5.27668477       4.17090990       0.01981991       0.01238111      -0.06744539
P        4.49401916       3.63357976       5.66488785       0.01952495      -0.06839437       0.00599897
P        1.51399928       1.57855199       3.39276148      -0.01981991      -0.01238111       0.06744539
8
Lattice="5.9989238 -0.00402778 0.01966281 0.0195276 6.77544097 0.72974072 -0.00490774 0.08370693 6.81413766" Properties=species:S:1:pos:R:3:forces:R:3 energy=-29.96628926 stress="0.006845934959732 5.162094423691144e-05 5.727493386726618e-05 5.162094423691144e-05 0.0067524899249859285 3.452741057498273e-05 5.727493386726618e-05 3.452741057498273e-05 0.006759488585342363" free_energy=-29.96628926 pbc="T T T"
P        1.46748637       1.10519470       1.22140755       0.01105120       0.01121458       0.01237839
P        4.54605729       5.74992542       6.34213364      -0.01105120      -0.01121458      -0.01237839
P        3.31524341       1.93289167       2.13914510      -0.00533793       0.00693192       0.00760241
P        2.69830025       4.92222845       5.42439609       0.00533793      -0.00693192      -0.00760241
P        1.51914863       3.22374524       1.89838376       0.00722634      -0.00980884       0.00928572
P        4.50040473       5.27716076       4.16874192      -0.00729920      -0.01014527       0.00885737
P        4.49439503       3.63137488       5.66515743      -0.00722634       0.00980884      -0.00928572
P        1.51313893       1.57795936       3.39479927       0.00729920       0.01014527      -0.00885737
8
Lattice="5.94335452 -0.00470595 0.01869377 0.01844308 6.71477853 0.72335451 -0.00577294 0.08310782 6.75313943" Properties=species:S:1:pos:R:3:forces:R:3 energy=-30.01564491 stress="0.006675527011909324 3.039284144321475e-05 3.397476863244964e-05 3.039284144321475e-05 0.006666324661925812 0.00013994580066212887 3.397476863244964e-05 0.00013994580066212887 0.0066932426555103555" free_energy=-30.01564491 pbc="T T T"
P        1.44968464       1.08748562       1.20185927       0.00524265       0.01127804       0.01242485
P        4.50634002       5.70569478       6.29332844      -0.00524265      -0.01127804      -0.01242485
P        3.29663585       1.91539831       2.11983084       0.00477432       0.00786182       0.00866575
P        2.65938881       4.87778209       5.37535687      -0.00477432      -0.00786182      -0.00866575
P        1.50075278       3.20625070       1.87948087       0.00369760      -0.00540716       0.00329891
P        4.46128009       5.23230563       4.11966408      -0.00373115      -0.00378210       0.00505635
P        4.45527188       3.58692970       5.61570684      -0.00369760       0.00540716      -0.00329891
P        1.49474457       1.56087477       3.37552363       0.00373115       0.00378210      -0.00505635
8
Lattice="5.77664668 -0.00674046 0.01578664 0.01518952 6.5327912 0.70419589 -0.00836854 0.08131047 6.57014473" Properties=species:S:1:pos:R:3:forces:R:3 energy=-30.1533861 stress="0.005058228946040554 -5.1688783199600663e-05 -5.64703471673577e-05 -5.1688783199600663e-05 0.005400569979406855 0.00047968545416438024 -5.64703471673577e-05 0.00047968545416438024 0.005491571943926347" free_energy=-30.1533861 pbc="T T T"
P        1.39663092       1.03498989       1.14391041      -0.02377582      -0.00986412      -0.01094423
P        4.38683674       5.57237132       6.14621685       0.02377582       0.00986412       0.01094423
P        3.23974141       1.86289091       2.06185372       0.06759773       0.00946032       0.01067613
P        2.54372625       4.74447030       5.22827354      -0.06759773      -0.00946032      -0.01067613
P        1.44586795       3.15282583       1.82292504      -0.01748450       0.03708313      -0.01988443
P        4.34359912       5.09749998       3.97335194       0.01770478       0.02324210      -0.03496573
P        4.33759971       3.45453538       5.46720222       0.01748450      -0.03708313       0.01988443
P        1.43986854       1.50986123       3.31677532      -0.01770478      -0.02324210       0.03496573
8
Lattice="5.44323101 -0.01080947 0.00997238 0.00868241 6.16881653 0.66587863 -0.01355973 0.07771579 6.20415533" Properties=species:S:1:pos:R:3:forces:R:3 energy=-30.30127965 stress="-0.005801748870457616 -0.000345779530675823 -0.0003836338778262118 -0.000345779530675823 -0.0038586297289203335 0.0012213968576216538 -0.0003836338778262118 0.0012213968576216538 -0.0036286616372526214" free_energy=-30.30127965 pbc="T T T"
P        1.29197219       0.93259524       1.03087451      -0.12117244      -0.13319424      -0.14697617
P        4.14638150       5.30312761       5.84913183       0.12117244       0.13319424       0.14697617
P        3.12154149       1.75776147       1.94575565       0.32040135       0.00761207       0.00965868
P        2.31681220       4.47796138       4.93425069      -0.32040135      -0.00761207      -0.00965868
P        1.33734291       3.04210701       1.71044243      -0.09867409       0.23338379      -0.08384647
P        4.10697485       4.82690047       3.68451506       0.09991050       0.10521004      -0.22401682
P        4.10101078       3.19361584       5.16956391       0.09867409      -0.23338379       0.08384647
P        1.33137884       1.40882238       3.19549128      -0.09991050      -0.10521004       0.22401682
8
Lattice="5.39945814 -0.00922735 0.01153662 0.0105013 6.10474577 0.64863979 -0.01154738 0.06662474 6.13874519" Properties=species:S:1:pos:R:3:forces:R:3 energy=-30.26192391 stress="0.008136673629334738 -0.000282917291461703 -0.00031029950352899323 -0.000282917291461703 0.007858284134562752 -7.24460203033316e-05 -0.00031029950352899323 -7.24460203033316e-05 0.007842198148994487" free_energy=-30.26192391 pbc="T T T"
P        1.26889450       0.90139879       0.99647138       0.21836068       0.30577933       0.33717882
P        4.12951756       5.26074437       5.80245022      -0.21836068      -0.30577933      -0.33717882
P        3.13645396       1.73814379       1.92423965      -0.59920648       0.01155539       0.01030233
P        2.26195810       4.42399937       4.87468195       0.59920648      -0.01155539      -0.01030233
P        1.31629462       3.04093014       1.68022403       0.19510598      -0.48810103       0.12395807
P        4.08818634       4.78320692       3.60754507      -0.19750513      -0.16891522       0.47342784
P        4.08211744       3.12121302       5.11869757      -0.19510598       0.48810103      -0.12395807
P        1.31022572       1.37893624       3.19137653       0.19750513       0.16891522      -0.47342784
8
Lattice="5.43217458 -0.01040985 0.01036749 0.00914183 6.15263314 0.66152434 -0.01305144 0.07491434 6.18763362" Properties=species:S:1:pos:R:3:forces:R:3 energy=-30.30678431 stress="-0.002228635166463166 -0.0003328687818036597 -0.00036816543341237104 -0.0003328687818036597 -0.000907958698881546 0.0008843095146979192 -0.00036816543341237104 0.0008843095146979192 -0.0007421228125313061" free_energy=-30.30678431 pbc="T T T"
P        1.28619640       0.92485329       1.02233658      -0.03246231      -0.02123720      -0.02348745
P        4.14206857       5.29228434       5.83718887       0.03246231       0.02123720       0.02348745
P        3.12513067       1.75280750       1.94032161       0.07937843       0.00877850       0.00997355
P        2.30313430       4.46433013       4.91920384      -0.07937843      -0.00877850      -0.00997355
P        1.33208337       3.04162688       1.70282191      -0.02198687       0.04689549      -0.02872715
P        4.10217137       4.81583479       3.66525417       0.02227846       0.03295760      -0.04387853
P        4.09618160       3.17551075       5.15670354       0.02198687      -0.04689549       0.02872715
P        1.32609360       1.40130284       3.19427128      -0.02227846      -0.03295760       0.04387853
8
Lattice="5.42933816 -0.01030733 0.01046885 0.0092597 6.14848144 0.66040728 -0.01292104 0.07419566 6.18339514" Properties=species:S:1:pos:R:3:forces:R:3 energy=-30.30653625 stress="-0.0012910166164871303 -0.00032925501043486454 -0.0003638911231327836 -0.00032925501043486454 -0.00012089731399480924 0.0008008255103356456 -0.0003638911231327836 0.0008008255103356456 2.9058712626048075e-05" free_energy=-30.30653625 pbc="T T T"
P        1.28469682       0.92282091       1.02009530      -0.00945102       0.00848245       0.00929120
P        4.14098000       5.28954886       5.83417597       0.00945102      -0.00848245      -0.00929120
P        3.12611100       1.75153620       1.93892740       0.01695642       0.00907828       0.01005256
P        2.29956582       4.46083357       4.91534387      -0.01695642      -0.00907828      -0.01005256
P        1.33071495       3.04156509       1.70086277      -0.00207887      -0.00199681      -0.01463974
P        4.10095850       4.81300588       3.66025233       0.00212407       0.01437591       0.00338416
P        4.09496187       3.17080468       5.15340850       0.00207887       0.00199681       0.01463974
P        1.32471832       1.39936389       3.19401894      -0.00212407      -0.01437591      -0.00338416
8
Lattice="5.42948441 -0.01031262 0.01046362 0.00925362 6.14869551 0.66046488 -0.01292776 0.07423271 6.18361368" Properties=species:S:1:pos:R:3:forces:R:3 energy=-30.30656677 stress="-0.0013390430568939182 -0.00032945240440247975 -0.0003641234695515038 -0.00032945240440247975 -0.00016117649368211278 0.0008051700188683718 -0.0003641234695515038 0.0008051700188683718 -1.0394159909588915e-05" free_energy=-30.30656677 pbc="T T T"
P        1.28477413       0.92292567       1.02021083      -0.01063230       0.00695550       0.00760709
P        4.14103614       5.28968993       5.83433135       0.01063230      -0.00695550      -0.00760709
P        3.12606045       1.75160178       1.93899926       0.02015982       0.00906302       0.01004865
P        2.29974982       4.46101382       4.91554292      -0.02015982      -0.00906302      -0.01004865
P        1.33078550       3.04156824       1.70096379      -0.00310109       0.00051394      -0.01536250
P        4.10102105       4.81315173       3.66051027       0.00315894       0.01532946       0.00095703
P        4.09502477       3.17104736       5.15357839       0.00310109      -0.00051394       0.01536250
P        1.32478922       1.39946387       3.19403191      -0.00315894      -0.01532946      -0.00095703
8
Lattice="5.44031488 -0.00827789 0.01274494 0.01187062 6.15244859 0.65545436 -0.01034402 0.06887838 6.186884" Properties=species:S:1:pos:R:3:forces:R:3 energy=-30.30711197 stress="-0.0004571905746784943 -0.00017168519152567076 -0.00018851950907209245 -0.00017168519152567076 -0.0003436710927195175 0.0002071732577362547 -0.00018851950907209245 0.0002071732577362547 -0.0003055724653849599" free_energy=-30.30711197 pbc="T T T"
P        1.28829245       0.92452142       1.02198000       0.01063739      -0.02321727      -0.02549207
P        4.15354903       5.28852766       5.83310330      -0.01063739       0.02321727       0.02549207
P        3.13272524       1.75270383       1.94023808      -0.01363136      -0.00047179      -0.00057363
P        2.30911624       4.46034525       4.91484522       0.01363136       0.00047179       0.00057363
P        1.33574556       3.04110917       1.69945583       0.00171489       0.01551660       0.00846055
P        4.11209592       4.81506264       3.66163340      -0.00168358      -0.00694371      -0.01625537
P        4.10609592       3.17193991       5.15562747      -0.00171489      -0.01551660      -0.00846055
P        1.32974556       1.39798644       3.19344990       0.00168358       0.00694371       0.01625537
8
Lattice="5.44686661 -0.00704702 0.014125 0.01345374 6.15471897 0.65242332 -0.00878102 0.06563935 6.18886233" Properties=species:S:1:pos:R:3:forces:R:3 energy=-30.3070519 stress="6.9610858473463e-05 -7.761113748989241e-05 -8.379403884508362e-05 -7.761113748989241e-05 -0.0004581926801762005 -0.00015245306717684944 -8.379403884508362e-05 -0.00015245306717684944 -0.00048786682432658805" free_energy=-30.3070519 pbc="T T T"
P        1.29042135       0.92548662       1.02305009       0.02339846      -0.04171435      -0.04578426
P        4.16111798       5.28782468       5.83236056      -0.02339846       0.04171435       0.04578426
P        3.13675632       1.75337034       1.94098731      -0.03397733      -0.00618760      -0.00694170
P        2.31478301       4.45994096       4.91442334       0.03397733       0.00618760       0.00694170
P        1.33874610       3.04083116       1.69854409       0.00466035       0.02482308       0.02288665
P        4.11879547       4.81621811       3.66231310      -0.00464424      -0.02041014      -0.02689907
P        4.11279323       3.17248014       5.15686656      -0.00466035      -0.02482308      -0.02288665
P        1.33274386       1.39709319       3.19309755       0.00464424       0.02041014       0.02689907
8
Lattice="5.44287519 -0.00779689 0.01328425 0.01248928 6.15333582 0.65426988 -0.00973322 0.06761262 6.1876571" Properties=species:S:1:pos:R:3:forces:R:3 energy=-30.30712354 stress="-0.00025088441859755293 -0.0001348694627013746 -0.00014753530099694738 -0.0001348694627013746 -0.0003881749002737664 6.663928846164824e-05 -0.00014753530099694738 6.663928846164824e-05 -0.00037655993238670034" free_energy=-30.30712354 pbc="T T T"
P        1.28912460       0.92489857       1.02239813       0.01563296      -0.03042145      -0.03339530
P        4.15650665       5.28825298       5.83281310      -0.01563296       0.03042145       0.03339530
P        3.13430025       1.75296427       1.94053085      -0.02160172      -0.00271399      -0.00307166
P        2.31133100       4.46018728       4.91468038       0.02160172       0.00271399       0.00307166
P        1.33691813       3.04100042       1.69909969       0.00288038       0.01913275       0.01410123
P        4.11471399       4.81551402       3.66189912      -0.00285510      -0.01221126      -0.02039453
P        4.10871312       3.17215113       5.15611154      -0.00288038      -0.01913275      -0.01410123
P        1.33091726       1.39763753       3.19331211       0.00285510       0.01221126       0.02039453
8
Lattice="5.44958399 -0.00594542 0.01534747 0.01485864 6.15800103 0.65175719 -0.00739168 0.0646593 6.19207149" Properties=species:S:1:pos:R:3:forces:R:3 energy=-30.30683128 stress="0.00022718609501257806 1.8206045214562652e-05 1.8831413221430526e-05 1.8206045214562652e-05 0.0006090559101485049 9.363974486476292e-05 1.8831413221430526e-05 9.363974486476292e-05 0.0006270437022719538" free_energy=-30.30683128 pbc="T T T"
P        1.29225284       0.92474582       1.02224271       0.03085839       0.00499195       0.00561417
P        4.16479811       5.29196909       5.83693344      -0.03085839      -0.00499195      -0.00561417
P        3.13796940       1.75455858       1.94229904      -0.03875393      -0.00906488      -0.01012537
P        2.31908155       4.46215633       4.91687711       0.03875393       0.00906488       0.01012537
P        1.34059227       3.04327363       1.69987953       0.00373633      -0.02241411       0.02205810
P        4.12246586       4.81853137       3.66351376      -0.00390607      -0.02406954       0.02020673
P        4.11645868       3.17344128       5.15929662      -0.00373633       0.02241411      -0.02205810
P        1.33458509       1.39818354       3.19566239       0.00390607       0.02406954      -0.02020673
8
Lattice="5.44890266 -0.00613345 0.01513793 0.01461801 6.15752724 0.65201237 -0.00762948 0.06495924 6.19162317" Properties=species:S:1:pos:R:3:forces:R:3 energy=-30.30688558 stress="0.0001791017521256293 2.8005401787473143e-06 2.087734870534943e-06 2.8005401787473143e-06 0.0005086423552935669 9.068348527483395e-05 2.087734870534943e-06 9.068348527483395e-05 0.0005259432506131849" free_energy=-30.30688558 pbc="T T T"
P        1.29193514       0.92476130       1.02225845       0.02931427       0.00140956       0.00166799
P        4.16395605       5.29159173       5.83651502      -0.02931427      -0.00140956      -0.00166799
P        3.13759676       1.75439662       1.94211940      -0.03700885      -0.00841967      -0.00940874
P        2.31829443       4.46195641       4.91665407       0.03700885       0.00841967       0.00940874
P        1.34021912       3.04304274       1.69980032       0.00364357      -0.01820592       0.02123896
P        4.12167861       4.81822494       3.66334980      -0.00379351      -0.02285532       0.01609560
P        4.11567207       3.17331029       5.15897315      -0.00364357       0.01820592      -0.02123896
P        1.33421258       1.39812809       3.19542367       0.00379351       0.02285532      -0.01609560
8
Lattice="5.45216947 -0.00506064 0.01633095 0.01598828 6.15811717 0.64994133 -0.00626912 0.06283611 6.19201894" Properties=species:S:1:pos:R:3:forces:R:3 energy=-30.30723953 stress="-0.00023388641747430498 3.311918880298269e-05 3.439633264183005e-05 3.311918880298269e-05 0.0004476298247579572 0.0001940944811969135 3.439633264183005e-05 0.0001940944811969135 0.00048487905759859166" free_energy=-30.30723953 pbc="T T T"
P        1.29436107       0.92433022       1.02179408       0.01992500       0.00292996       0.00330245
P        4.16752756       5.29156242       5.83649714      -0.01992500      -0.00292996      -0.00330245
P        3.13840394       1.75438975       1.94211510      -0.00890267      -0.00970418      -0.01070859
P        2.32348469       4.46150289       4.91617612       0.00890267       0.00970418       0.01070859
P        1.34229117       3.04275928       1.70001898      -0.00605872      -0.01071156       0.01329605
P        4.12560210       4.81752828       3.66312146       0.00596748      -0.01427623       0.00942386
P        4.11959746       3.17313336       5.15827224       0.00605872       0.01071156      -0.01329605
P        1.33628653       1.39836436       3.19516976      -0.00596748       0.01427623      -0.00942386
8
Lattice="5.45699618 -0.00347556 0.01809364 0.01801286 6.15898879 0.64688136 -0.00425918 0.05969919 6.1926037" Properties=species:S:1:pos:R:3:forces:R:3 energy=-30.30755247 stress="-0.0008481206206351355 7.777077032729599e-05 8.196619417304133e-05 7.777077032729599e-05 0.0003551189878903019 0.00034668497392169664 8.196619417304133e-05 0.00034668497392169664 0.00042180272213843557" free_energy=-30.30755247 pbc="T T T"
P        1.29794665       0.92369405       1.02110881       0.00596605       0.00512189       0.00565711
P        4.17280321       5.29151837       5.83646989      -0.00596605      -0.00512189      -0.00565711
P        3.13959393       1.75437888       1.94210792       0.03293473      -0.01160894      -0.01263546
P        2.33115593       4.46083354       4.91547078      -0.03293473       0.01160894       0.01263546
P        1.34535329       3.04233981       1.70034253      -0.02049957       0.00050910       0.00150553
P        4.13139840       4.81649843       3.66278468       0.02049583      -0.00153240      -0.00057511
P        4.12539657       3.17287261       5.15723617       0.02049957      -0.00050910      -0.00150553
P        1.33935146       1.39871399       3.19479402      -0.02049583       0.00153240       0.00057511
8
Lattice="5.46274253 -0.00273416 0.01893211 0.01897848 6.15811991 0.64354945 -0.00330221 0.05646089 6.19142617" Properties=species:S:1:pos:R:3:forces:R:3 energy=-30.30778545 stress="-0.0005854182165831789 -1.891520548144551e-05 -2.294592214286791e-05 -1.891520548144551e-05 0.00021080195255336986 0.0002888672909038619 -2.294592214286791e-05 0.0002888672909038619 0.00026569249262134784" free_energy=-30.30778545 pbc="T T T"
P        1.30088530       0.92295236       1.02030488       0.00029592      -0.00379761      -0.00417549
P        4.17753350       5.28889428       5.83360285      -0.00029592       0.00379761       0.00417549
P        3.14247658       1.75320619       1.94082974       0.02368615      -0.00689403      -0.00748705
P        2.33594222       4.45864045       4.91307799      -0.02368615       0.00689403       0.00748705
P        1.34725930       3.04104723       1.69947435      -0.01396419       0.00767708      -0.00261637
P        4.13715935       4.81388192       3.66047589       0.01400419       0.00327690      -0.00734344
P        4.13115950       3.17079941       5.15443338       0.01396419      -0.00767708       0.00261637
P        1.34125945       1.39796472       3.19343184      -0.01400419      -0.00327690       0.00734344
8
Lattice="5.46675161 -0.00221691 0.0195171 0.01965217 6.15751372 0.64122487 -0.00263456 0.05420161 6.19060464" Properties=species:S:1:pos:R:3:forces:R:3 energy=-30.30789759 stress="-0.00040423303622831147 -8.630003596667138e-05 -9.606771063925888e-05 -8.630003596667138e-05 0.00010953949628372958 0.0002488795709682097 -9.606771063925888e-05 0.0002488795709682097 0.0001562695253129985" free_energy=-30.30789759 pbc="T T T"
P        1.30293613       0.92243509       1.01974423      -0.00366904      -0.01002843      -0.01104419
P        4.18083309       5.28706333       5.83160238       0.00366904       0.01002843       0.01104419
P        3.14448721       1.75238806       1.93993803       0.01726972      -0.00359822      -0.00388803
P        2.33928201       4.45711036       4.91140858      -0.01726972       0.00359822       0.00388803
P        1.34858900       3.04014518       1.69886868      -0.00941295       0.01270642      -0.00549927
P        4.14117868       4.81205640       3.65886536       0.00948360       0.00664202      -0.01209312
P        4.13518022       3.16935324       5.15247793       0.00941295      -0.01270642       0.00549927
P        1.34259054       1.39744202       3.19248125      -0.00948360      -0.00664202       0.01209312
8
Lattice="5.47476976 -0.00118242 0.02068706 0.02099955 6.15630134 0.6365757 -0.00129925 0.04968305 6.18896159" Properties=species:S:1:pos:R:3:forces:R:3 energy=-30.30799542 stress="-4.496673404460653e-05 -0.00022090966464313546 -0.00024214047001028369 -0.00022090966464313546 -9.431284169191642e-05 0.00016943597008952188 -0.00024214047001028369 0.00016943597008952188 -6.3801218088527e-05" free_energy=-30.30799542 pbc="T T T"
P        1.30704026       0.92140129       1.01862372      -0.01163704      -0.02252935      -0.02482493
P        4.18742980       5.28340068       5.82760063       0.01163704       0.02252935       0.02482493
P        3.14850616       1.75075214       1.93815496       0.00453112       0.00299146       0.00330827
P        2.34596390       4.45404983       4.90806939      -0.00453112      -0.00299146      -0.00330827
P        1.35124816       3.03834033       1.69765727      -0.00033262       0.02284453      -0.01128567
P        4.14921759       4.80840532       3.65564506       0.00046497       0.01340020      -0.02166952
P        4.14322190       3.16646164       5.14856708       0.00033262      -0.02284453       0.01128567
P        1.34525247       1.39639665       3.19057929      -0.00046497      -0.01340020       0.02166952
8
Lattice="5.48001312 0.00047278 0.02252854 0.02310907 6.15594677 0.63283702 0.00079807 0.04598645 6.18826162" Properties=species:S:1:pos:R:3:forces:R:3 energy=-30.30780332 stress="0.00045787899441055184 -0.00016839915555956662 -0.0001846104394235335 -0.00016839915555956662 0.0003836254268228553 8.144588948928944e-05 -0.0001846104394235335 8.144588948928944e-05 0.0003977908688255402" free_energy=-30.30780332 pbc="T T T"
P        1.30966454       0.92020402       1.01731748      -0.00124267      -0.00746228      -0.00821215
P        4.19425572       5.28220198       5.82630970       0.00124267       0.00746228       0.00821215
P        3.15200878       1.75027178       1.93764072      -0.02005011       0.00102955       0.00105179
P        2.35191148       4.45213422       4.90598646       0.02005011      -0.00102955      -0.00105179
P        1.35386094       3.03819499       1.69647396       0.00624300      -0.00070320      -0.00401872
P        4.15605877       4.80718398       3.65329532      -0.00623111       0.00395883       0.00105857
P        4.15005932       3.16421101       5.14715322      -0.00624300       0.00070320       0.00401872
P        1.34786149       1.39522202       3.19033186       0.00623111      -0.00395883      -0.00105857
8
Lattice="5.480928 0.00076159 0.02284984 0.02347715 6.15588491 0.63218468 0.00116402 0.04534146 6.18813949" Properties=species:S:1:pos:R:3:forces:R:3 energy=-30.30775258 stress="0.0005452489748376186 -0.00015927194710442253 -0.0001746113420755765 -0.00015927194710442253 0.00046679100187254464 6.612661714355731e-05 -0.0001746113420755765 6.612661714355731e-05 0.0004781104093364636" free_energy=-30.30775258 pbc="T T T"
P        1.31012245       0.91999512       1.01708956       0.00056090      -0.00484032      -0.00532122
P        4.19544672       5.28199284       5.82608445      -0.00056090       0.00484032       0.00532122
P        3.15261989       1.75018797       1.93755099      -0.02433061       0.00068642       0.00065723
P        2.35294928       4.45179999       4.90562302       0.02433061      -0.00068642      -0.00065723
P        1.35431684       3.03816966       1.69626751       0.00738392      -0.00480143      -0.00275318
P        4.15725243       4.80697087       3.65288531      -0.00739300       0.00231484       0.00501409
P        4.15125233       3.16381830       5.14690650      -0.00738392       0.00480143       0.00275318
P        1.34831674       1.39501709       3.19028870       0.00739300      -0.00231484      -0.00501409
8
Lattice="5.48305238 0.00293049 0.02524377 0.0262148 6.15316943 0.62833236 0.00389848 0.04175315 6.18508077" Properties=species:S:1:pos:R:3:forces:R:3 energy=-30.30800186 stress="0.00021347722564396069 -1.4337383096084686e-05 -1.6561526148565806e-05 -1.4337383096084686e-05 0.00041724578384260997 6.880652143391957e-06 -1.6561526148565806e-05 6.880652143391957e-06 0.0004184382116780917" free_energy=-30.30800186 pbc="T T T"
P        1.31211413       0.91855826       1.01551727       0.00211247      -0.00386856      -0.00424624
P        4.20105153       5.27929481       5.82313963      -0.00211247       0.00386856       0.00424624
P        3.15400377       1.74942425       1.93671660      -0.00533475      -0.00627566      -0.00692351
P        2.35916189       4.44842882       4.90194030       0.00533475       0.00627566       0.00692351
P        1.35687331       3.03680437       1.69450496      -0.00325825      -0.00183478       0.00009014