8
Lattice="3.341223 0.0 0.0 0.0 10.71278 0.0 0.0 0.0 4.467999" Properties=species:S:1:pos:R:3:forces:R:3 energy=-31.68911179 stress="-5.155804854944992e-05 -0.0 -0.0 -0.0 -0.00023648489503661093 0.0 -0.0 0.0 1.9511987376516838e-05" free_energy=-31.69085948 pbc="T T T"
P        1.67061150       9.63334957       1.86708742       0.00000000      -0.00113464      -0.00271723
P        1.67061150       1.07943043       2.60091158      -0.00000000       0.00113464       0.00271723
P        0.00000000       1.07943043       4.10108692      -0.00000000       0.00113464      -0.00271723
P        0.00000000       9.63334957       0.36691208      -0.00000000      -0.00113464       0.00271723
P        0.00000000       4.27695957       1.86708742       0.00000000      -0.00113464      -0.00271723
P        0.00000000       6.43582043       2.60091158       0.00000000       0.00113464       0.00271723
P        1.67061150       6.43582043       4.10108692      -0.00000000       0.00113464      -0.00271723
P        1.67061150       4.27695957       0.36691208      -0.00000000      -0.00113464       0.00271723
8
Lattice="3.39134134 0.0 0.0 0.0 10.71278 0.0 0.0 0.0 4.467999" Properties=species:S:1:pos:R:3:forces:R:3 energy=-31.66640952 stress="0.01619807244287558 -0.0 -0.0 -0.0 0.0016882776311199562 -0.0 -0.0 -0.0 0.00522259272877289" free_energy=-31.6678253 pbc="T T T"
P        1.69567067       9.63334957       1.86708742       0.00000000       0.02354188      -0.04316315
P        1.69567067       1.07943043       2.60091158       0.00000000      -0.02354188       0.04316315
P        0.00000000       1.07943043       4.10108692      -0.00000000      -0.02354188      -0.04316315
P        0.00000000       9.63334957       0.36691208      -0.00000000       0.02354188       0.04316315
P        0.00000000       4.27695957       1.86708742      -0.00000000       0.02354188      -0.04316315
P        0.00000000       6.43582043       2.60091158      -0.00000000      -0.02354188       0.04316315
P        1.69567067       6.43582043       4.10108692       0.00000000      -0.02354188      -0.04316315
P        1.69567067       4.27695957       0.36691208       0.00000000       0.02354188       0.04316315
8
Lattice="3.29110465 0.0 0.0 0.0 10.71278 0.0 0.0 0.0 4.467999" Properties=species:S:1:pos:R:3:forces:R:3 energy=-31.67085227 stress="-0.01853069681866625 -0.0 -0.0 -0.0 -0.002167957698861961 -0.0 -0.0 -0.0 -0.0057553091152932655" free_energy=-31.67276701 pbc="T T T"
P        1.64555232       9.63334957       1.86708742       0.00000000      -0.02770041       0.04859292
P        1.64555232       1.07943043       2.60091158      -0.00000000       0.02770041      -0.04859292
P        0.00000000       1.07943043       4.10108692       0.00000000       0.02770041       0.04859292
P        0.00000000       9.63334957       0.36691208      -0.00000000      -0.02770041      -0.04859292
P        0.00000000       4.27695957       1.86708742       0.00000000      -0.02770041       0.04859292
P        0.00000000       6.43582043       2.60091158       0.00000000       0.02770041      -0.04859292
P        1.64555232       6.43582043       4.10108692      -0.00000000       0.02770041       0.04859292
P        1.64555232       4.27695957       0.36691208      -0.00000000      -0.02770041      -0.04859292
8
Lattice="3.341223 0.0 0.0 0.0 10.8734717 0.0 0.0 0.0 4.467999" Properties=species:S:1:pos:R:3:forces:R:3 energy=-31.67140822 stress="0.0018475798058530755 -0.0 -0.0 -0.0 0.01291607169980245 -0.0 -0.0 -0.0 0.0017361206835056072" free_energy=-31.67308105 pbc="T T T"
P        1.67061150       9.77784982       1.86708742       0.00000000       0.18142550       0.02239234
P        1.67061150       1.09562188       2.60091158      -0.00000000      -0.18142550      -0.02239234
P        0.00000000       1.09562188       4.10108692       0.00000000      -0.18142550       0.02239234
P        0.00000000       9.77784982       0.36691208      -0.00000000       0.18142550      -0.02239234
P        0.00000000       4.34111397       1.86708742       0.00000000       0.18142550       0.02239234
P        0.00000000       6.53235773       2.60091158       0.00000000      -0.18142550      -0.02239234
P        1.67061150       6.53235773       4.10108692      -0.00000000      -0.18142550       0.02239234
P        1.67061150       4.34111397       0.36691208       0.00000000       0.18142550      -0.02239234
8
Lattice="3.341223 0.0 0.0 0.0 10.5520883 0.0 0.0 0.0 4.467999" Properties=species:S:1:pos:R:3:forces:R:3 energy=-31.67333373 stress="-0.001981230414169329 -0.0 -0.0 -0.0 -0.015325944075840555 0.0 -0.0 0.0 -0.0019936049862000335" free_energy=-31.67516511 pbc="T T T"
P        1.67061150       9.48884933       1.86708742       0.00000000      -0.21205058      -0.04003210
P        1.67061150       1.06323897       2.60091158      -0.00000000       0.21205058       0.04003210
P        0.00000000       1.06323897       4.10108692      -0.00000000       0.21205058      -0.04003210
P        0.00000000       9.48884933       0.36691208      -0.00000000      -0.21205058       0.04003210
P        0.00000000       4.21280518       1.86708742       0.00000000      -0.21205058      -0.04003210
P        0.00000000       6.33928312       2.60091158       0.00000000       0.21205058       0.04003210
P        1.67061150       6.33928312       4.10108692      -0.00000000       0.21205058      -0.04003210
P        1.67061150       4.21280518       0.36691208      -0.00000000      -0.21205058       0.04003210
8
Lattice="3.341223 0.0 0.0 0.0 10.71278 0.0 0.0 0.0 4.53501898" Properties=species:S:1:pos:R:3:forces:R:3 energy=-31.67279066 stress="0.004999997338620509 -0.0 -0.0 -0.0 0.0016088275577963048 -0.0 -0.0 -0.0 0.01178610986132797" free_energy=-31.67451142 pbc="T T T"
P        1.67061150       9.63334957       1.89509373      -0.00000000       0.03496001      -0.19412898
P        1.67061150       1.07943043       2.63992525       0.00000000      -0.03496001       0.19412898
P        0.00000000       1.07943043       4.16260322      -0.00000000      -0.03496001      -0.19412898
P        0.00000000       9.63334957       0.37241576       0.00000000       0.03496001       0.19412898
P        0.00000000       4.27695957       1.89509373       0.00000000       0.03496001      -0.19412898
P        0.00000000       6.43582043       2.63992525      -0.00000000      -0.03496001       0.19412898
P        1.67061150       6.43582043       4.16260322       0.00000000      -0.03496001      -0.19412898
P        1.67061150       4.27695957       0.37241576      -0.00000000       0.03496001       0.19412898
8
Lattice="3.341223 0.0 0.0 0.0 10.71278 0.0 0.0 0.0 4.40097901" Properties=species:S:1:pos:R:3:forces:R:3 energy=-31.67679584 stress="-0.005980541880092825 -0.0 -0.0 -0.0 -0.002124547428672603 -0.0 -0.0 -0.0 -0.012233709358593083" free_energy=-31.67851941 pbc="T T T"
P        1.67061150       9.63334957       1.83908111       0.00000000      -0.03792758       0.19688471
P        1.67061150       1.07943043       2.56189790      -0.00000000       0.03792758      -0.19688471
P        0.00000000       1.07943043       4.03957061       0.00000000       0.03792758       0.19688471
P        0.00000000       9.63334957       0.36140840       0.00000000      -0.03792758      -0.19688471
P        0.00000000       4.27695957       1.83908111      -0.00000000      -0.03792758       0.19688471
P        0.00000000       6.43582043       2.56189790       0.00000000       0.03792758      -0.19688471
P        1.67061150       6.43582043       4.03957061      -0.00000000       0.03792758       0.19688471
P        1.67061150       4.27695957       0.36140840       0.00000000      -0.03792758      -0.19688471
8
Lattice="3.341223 0.05011834 0.0 0.0 10.71278 0.0 0.0 0.0 4.467999" Properties=species:S:1:pos:R:3:forces:R:3 energy=-31.68372371 stress="9.215450911165862e-06 0.004479832876612651 -0.0 0.004479832876612651 -0.0002821502973712597 -0.0 -0.0 -0.0 1.5298257184505285e-05" free_energy=-31.68549723 pbc="T T T"
P        1.67061150       9.65840874       1.86708742       0.06141506      -0.00137596      -0.00268255
P        1.67061150       1.10448960       2.60091158      -0.06141506       0.00137596       0.00268255
P        0.00000000       1.07943043       4.10108692      -0.06141506       0.00137596      -0.00268255
P        0.00000000       9.63334957       0.36691208       0.06141506      -0.00137596       0.00268255
P        0.00000000       4.27695957       1.86708742       0.06141506      -0.00137596      -0.00268255
P        0.00000000       6.43582043       2.60091158      -0.06141506       0.00137596       0.00268255
P        1.67061150       6.46087960       4.10108692      -0.06141506       0.00137596      -0.00268255
P        1.67061150       4.30201874       0.36691208       0.06141506      -0.00137596       0.00268255
8
Lattice="3.341223 -0.05011834 0.0 0.0 10.71278 0.0 0.0 0.0 4.467999" Properties=species:S:1:pos:R:3:forces:R:3 energy=-31.68372374 stress="9.197512813938073e-06 -0.004479892283296511 -0.0 -0.004479892283296511 -0.000282133401606056 -0.0 -0.0 -0.0 1.528772775860992e-05" free_energy=-31.68549726 pbc="T T T"
P        1.67061150       9.60829040       1.86708742      -0.06141670      -0.00137600      -0.00268254
P        1.67061150       1.05437126       2.60091158       0.06141670       0.00137600       0.00268254
P        0.00000000       1.07943043       4.10108692       0.06141670       0.00137600      -0.00268254
P        0.00000000       9.63334957       0.36691208      -0.06141670      -0.00137600       0.00268254
P        0.00000000       4.27695957       1.86708742      -0.06141670      -0.00137600      -0.00268254
P        0.00000000       6.43582043       2.60091158       0.06141670       0.00137600       0.00268254
P        1.67061150       6.41076126       4.10108692       0.06141670       0.00137600      -0.00268254
P        1.67061150       4.25190040       0.36691208      -0.06141670      -0.00137600       0.00268254
8
Lattice="3.341223 0.0 0.0 0.0 10.71278 0.1606917 0.0 0.0 4.467999" Properties=species:S:1:pos:R:3:forces:R:3 energy=-31.68369652 stress="-9.060745745217156e-05 -0.0 -0.0 -0.0 -0.0003386741405133354 0.00454225456514663 -0.0 0.00454225456514663 5.294396940934317e-05" free_energy=-31.68543477 pbc="T T T"
P        1.67061150       9.63334957       2.01158767       0.00000000      -0.01710756       0.08093406
P        1.67061150       1.07943043       2.61710303       0.00000000       0.01710756      -0.08093406
P        0.00000000       1.07943043       4.11727838      -0.00000000      -0.01095981      -0.08631469
P        0.00000000       9.63334957       0.51141232      -0.00000000       0.01095981       0.08631469
P        0.00000000       4.27695957       1.93124182       0.00000000      -0.01710756       0.08093406
P        0.00000000       6.43582043       2.69744888       0.00000000       0.01710756      -0.08093406
P        1.67061150       6.43582043       4.19762423      -0.00000000      -0.01095981      -0.08631469
P        1.67061150       4.27695957       0.43106647      -0.00000000       0.01095981       0.08631469
8
Lattice="3.341223 0.0 0.0 0.0 10.71278 -0.1606917 0.0 0.0 4.467999" Properties=species:S:1:pos:R:3:forces:R:3 energy=-31.68369643 stress="-9.064858899731113e-05 -0.0 -0.0 -0.0 -0.00033858649724218974 -0.004538080356190403 -0.0 -0.004538080356190403 5.277446250450243e-05" free_energy=-31.68543468 pbc="T T T"
P        1.67061150       9.63334957       1.72258718       0.00000000       0.01100093      -0.08628692
P        1.67061150       1.07943043       2.58472012       0.00000000      -0.01100093       0.08628692
P        0.00000000       1.07943043       4.08489547       0.00000000       0.01714543       0.08090554
P        0.00000000       9.63334957       0.22241183      -0.00000000      -0.01714543      -0.08090554
P        0.00000000       4.27695957       1.80293303       0.00000000       0.01100093      -0.08628692
P        0.00000000       6.43582043       2.50437427      -0.00000000      -0.01100093       0.08628692
P        1.67061150       6.43582043       4.00454962       0.00000000       0.01714543       0.08090554
P        1.67061150       4.27695957       0.30275768      -0.00000000      -0.01714543      -0.08090554
8
Lattice="3.341223 0.0 0.0 0.0 10.71278 0.0 0.06701998 0.0 4.467999" Properties=species:S:1:pos:R:3:forces:R:3 energy=-31.67729993 stress="-0.0002300098910543284 -0.0 0.009933372921178504 -0.0 -0.00022201433061879816 -0.0 0.009933372921178504 -0.0 -0.0004185554709100397" free_energy=-31.6790755 pbc="T T T"
P        1.69861781       9.63334957       1.86708742      -0.16047498      -0.00114729       0.00412947
P        1.70962517       1.07943043       2.60091158       0.16047498       0.00114729      -0.00412947
P        0.06151630       1.07943043       4.10108692      -0.16047498       0.00114729       0.00412947
P        0.00550368       9.63334957       0.36691208       0.16047498      -0.00114729      -0.00412947
P        0.02800631       4.27695957       1.86708742      -0.16047498      -0.00114729       0.00412947
P        0.03901367       6.43582043       2.60091158       0.16047498       0.00114729      -0.00412947
P        1.73212780       6.43582043       4.10108692      -0.16047498       0.00114729       0.00412947
P        1.67611518       4.27695957       0.36691208       0.16047498      -0.00114729      -0.00412947
8
Lattice="3.341223 0.0 0.0 0.0 10.71278 0.0 -0.06701998 0.0 4.467999" Properties=species:S:1:pos:R:3:forces:R:3 energy=-31.67729996 stress="-0.00023002032061607776 -0.0 -0.009933420287991261 -0.0 -0.00022199569347254827 -0.0 -0.009933420287991261 -0.0 -0.00041854805599719807" free_energy=-31.67907553 pbc="T T T"
P        1.64260519       9.63334957       1.86708742       0.16047365      -0.00114700       0.00412916
P        1.63159783       1.07943043       2.60091158      -0.16047365       0.00114700      -0.00412916
P       -0.06151630       1.07943043       4.10108692       0.16047365       0.00114700       0.00412916
P       -0.00550368       9.63334957       0.36691208      -0.16047365      -0.00114700      -0.00412916
P       -0.02800631       4.27695957       1.86708742       0.16047365      -0.00114700       0.00412916
P       -0.03901367       6.43582043       2.60091158      -0.16047365       0.00114700      -0.00412916
P        1.60909520       6.43582043       4.10108692       0.16047365       0.00114700       0.00412916
P        1.66510782       4.27695957       0.36691208      -0.16047365      -0.00114700      -0.00412916
8
Lattice="3.341223 0.0 0.0 0.0 10.71278 0.0 0.0 0.0 4.467999" Properties=species:S:1:pos:R:3:forces:R:3 energy=-31.68796819 stress="-6.987496169061563e-05 -0.00038405495499788036 0.0010036441607774085 -0.00038405495499788036 -0.0002388387491317462 1.5505469045975484e-06 0.0010036441607774085 1.5505469045975484e-06 -9.547711407973131e-06" free_energy=-31.68971653 pbc="T T T"
P        1.68561149       9.63334957       1.86708742      -0.15386917      -0.00127568       0.00035096
P        1.67061150       1.07943043       2.60091158       0.01697691       0.00116868       0.00268389
P        0.00000000       1.07943043       4.10108692       0.01150242       0.00123747      -0.00283990
P        0.00000000       9.63334957       0.36691208       0.12372826      -0.00110271      -0.00018146
P        0.00000000       4.27695957       1.86708742       0.00094751      -0.00114675      -0.00272360
P        0.00000000       6.43582043       2.60091158       0.00126692       0.00112348       0.00271182
P        1.67061150       6.43582043       4.10108692      -0.00046250       0.00114080      -0.00272813
P        1.67061150       4.27695957       0.36691208      -0.00009035      -0.00114528       0.00272643
8
Lattice="3.341223 0.0 0.0 0.0 10.71278 0.0 0.0 0.0 4.467999" Properties=species:S:1:pos:R:3:forces:R:3 energy=-31.68796816 stress="-6.989589571222385e-05 0.0003839171299933626 -0.0010040693011715179 0.0003839171299933626 -0.00023879645042440006 1.5354861430767922e-06 -0.0010040693011715179 1.5354861430767922e-06 -9.536557831165178e-06" free_energy=-31.6897165 pbc="T T T"
P        1.65561151       9.63334957       1.86708742       0.15388444      -0.00127546       0.00035198
P        1.67061150       1.07943043       2.60091158      -0.01698782       0.00116933       0.00268350
P        0.00000000       1.07943043       4.10108692      -0.01148637       0.00123650      -0.00283982
P        0.00000000       9.63334957       0.36691208      -0.12372811      -0.00110112      -0.00018126
P        0.00000000       4.27695957       1.86708742      -0.00094594      -0.00114720      -0.00272435
P        0.00000000       6.43582043       2.60091158      -0.00128000       0.00112311       0.00271194
P        1.67061150       6.43582043       4.10108692       0.00046549       0.00114033      -0.00272890
P        1.67061150       4.27695957       0.36691208       0.00007832      -0.00114547       0.00272691
8
Lattice="3.341223 0.0 0.0 0.0 10.71278 0.0 0.0 0.0 4.467999" Properties=species:S:1:pos:R:3:forces:R:3 energy=-31.68833738 stress="-0.0002077310426823075 -0.0 -0.0 -0.0 -0.0014959908906941905 7.491597270971738e-05 -0.0 7.491597270971738e-05 -0.00020478248511463987" free_energy=-31.69006682 pbc="T T T"
P        1.67061150       9.64834961       1.86708742       0.00000000      -0.13467917      -0.00917576
P        1.67061150       1.07943043       2.60091158       0.00000000       0.11361282       0.00901295
P        0.00000000       1.07943043       4.10108692       0.00000000      -0.00981836      -0.01522101
P        0.00000000       9.63334957       0.36691208       0.00000000       0.02508511       0.01687107
P        0.00000000       4.27695957       1.86708742       0.00000000       0.00172916      -0.00174612
P        0.00000000       6.43582043       2.60091158       0.00000000       0.00548823       0.00158919
P        1.67061150       6.43582043       4.10108692       0.00000000      -0.00118545      -0.00454891
P        1.67061150       4.27695957       0.36691208       0.00000000      -0.00023234       0.00321858
8
Lattice="3.341223 0.0 0.0 0.0 10.71278 0.0 0.0 0.0 4.467999" Properties=species:S:1:pos:R:3:forces:R:3 energy=-31.68794613 stress="0.00011423819173482226 -0.0 -0.0 -0.0 0.000953872219928476 -0.00010000597182599957 -0.0 -0.00010000597182599957 0.00025311210682721753" free_energy=-31.68970739 pbc="T T T"
P        1.67061150       9.61834954       1.86708742       0.00000000       0.12592591       0.00073264
P        1.67061150       1.07943043       2.60091158       0.00000000      -0.10472166      -0.00126058
P        0.00000000       1.07943043       4.10108692       0.00000000       0.01217940       0.00934280
P        0.00000000       9.63334957       0.36691208       0.00000000      -0.02740954      -0.01039301
P        0.00000000       4.27695957       1.86708742       0.00000000      -0.00406339      -0.00363446
P        0.00000000       6.43582043       2.60091158       0.00000000      -0.00325953       0.00384885
P        1.67061150       6.43582043       4.10108692       0.00000000       0.00341780      -0.00085181
P        1.67061150       4.27695957       0.36691208       0.00000000      -0.00206899       0.00221557
8
Lattice="3.341223 0.0 0.0 0.0 10.71278 0.0 0.0 0.0 4.467999" Properties=species:S:1:pos:R:3:forces:R:3 energy=-31.68759323 stress="0.00020531678326185198 -0.0 -0.0 -0.0 -0.0004290125764391631 -0.0005232430801426908 -0.0 -0.0005232430801426908 0.0012348867998161718" free_energy=-31.68935033 pbc="T T T"
P        1.67061150       9.63334957       1.88208743       0.00000000      -0.00621554      -0.18526363
P        1.67061150       1.07943043       2.60091158       0.00000000       0.00624742       0.01367866
P        0.00000000       1.07943043       4.10108692       0.00000000       0.01348170       0.02524449
P        0.00000000       9.63334957       0.36691208       0.00000000      -0.01466437       0.14594024
P        0.00000000       4.27695957       1.86708742       0.00000000      -0.00019381      -0.00383727
P        0.00000000       6.43582043       2.60091158       0.00000000      -0.00000335       0.00412434
P        1.67061150       6.43582043       4.10108692       0.00000000       0.00297237      -0.00196920
P        1.67061150       4.27695957       0.36691208       0.00000000      -0.00162443       0.00208238
8
Lattice="3.341223 0.0 0.0 0.0 10.71278 0.0 0.0 0.0 4.467999" Properties=species:S:1:pos:R:3:forces:R:3 energy=-31.68786012 stress="-0.0003641998718647137 -0.0 -0.0 -0.0 -4.399089281730206e-05 0.0005230335776473715 -0.0 0.0005230335776473715 -0.0012100019154142935" free_energy=-31.6896043 pbc="T T T"
P        1.67061150       9.63334957       1.85208741       0.00000000       0.00364737       0.18443047
P        1.67061150       1.07943043       2.60091158       0.00000000      -0.00397882      -0.00827891
P        0.00000000       1.07943043       4.10108692       0.00000000      -0.01109496      -0.03062435
P        0.00000000       9.63334957       0.36691208       0.00000000       0.01260487      -0.14512514
P        0.00000000       4.27695957       1.86708742       0.00000000      -0.00208479      -0.00161076
P        0.00000000       6.43582043       2.60091158       0.00000000       0.00225865       0.00131608
P        1.67061150       6.43582043       4.10108692       0.00000000      -0.00072811      -0.00347182
P        1.67061150       4.27695957       0.36691208       0.00000000      -0.00062421       0.00336445
