8
Lattice="6.000838 -0.00371 0.02002 0.019938 6.776256 0.729356 -0.004502 0.083245 6.814914" Properties=species:S:1:pos:R:3:forces:R:3 energy=-29.94664583 stress="0.0003399207945801028 5.679054282702463e-05 6.300756027109792e-05 5.679054282702463e-05 0.00013602128327848336 -7.389139153764889e-05 6.300756027109792e-05 -7.389139153764889e-05 0.0001223996327583911" free_energy=-29.94664583 pbc="T T T"
P        1.47259361       1.11374632       1.23083329      -0.16641204      -0.31048459      -0.34214512
P        4.54368039       5.74204468       6.33345671       0.16641204       0.31048459       0.34214512
P        3.30318971       1.93326582       2.13950819       0.49228193      -0.00361628      -0.00200017
P        2.71308429       4.92252518       5.42478181      -0.49228193       0.00361628       0.00200017
P        1.52403946       3.21173646       1.90068112      -0.15208867       0.45631239      -0.08170195
P        4.49818796       5.27442517       4.18120955       0.15420775       0.12400673      -0.44594782
P        4.49223454       3.64405454       5.66360888       0.15208867      -0.45631239       0.08170195
P        1.51808604       1.58136583       3.38308045      -0.15420775      -0.12400673       0.44594782
8
Lattice="5.99743198 -0.00427544 0.01938444 0.01920775 6.77480579 0.73004055 -0.00522395 0.08406693 6.81353263" Properties=species:S:1:pos:R:3:forces:R:3 energy=-29.94691757 stress="0.011633387685243647 4.704487571561499e-05 5.221503604154951e-05 4.704487571561499e-05 0.011619121592664799 0.00011405715676262601 5.221503604154951e-05 0.00011405715676262601 0.011641239815799466" free_energy=-29.94691757 pbc="T T T"
P        1.46350278       1.09852922       1.21406073       0.13911387       0.24311555       0.26794175
P        4.54791300       5.75606806       6.34889689      -0.13911387      -0.24311555      -0.26794175
P        3.32464314       1.93260106       2.13886324      -0.36475888       0.01459209       0.01458372
P        2.68677264       4.92199622       5.42409438       0.36475888      -0.01459209      -0.01458372
P        1.51533594       3.23310628       1.89659141       0.12240544      -0.34624148       0.07512493
P        4.50213343       5.27929485       4.15902348      -0.12406099      -0.10713772       0.33710589
P        4.49607984       3.62149100       5.66636621      -0.12240544       0.34624148      -0.07512493
P        1.50928235       1.57530243       3.40393414       0.12406099       0.10713772      -0.33710589
8
Lattice="5.9992566 -0.00397253 0.01972491 0.01959895 6.77558267 0.72967383 -0.0048372 0.08362662 6.81427264" Properties=species:S:1:pos:R:3:forces:R:3 energy=-29.96656391 stress="0.005744451985202755 5.2574709246437664e-05 5.8330610237799825e-05 5.2574709246437664e-05 0.005632658349173684 1.621703853538093e-05 5.8330610237799825e-05 1.621703853538093e-05 0.0056361751774227364" free_energy=-29.96656391 pbc="T T T"
P        1.46837497       1.10668168       1.22304652      -0.01873024      -0.04273182      -0.04707248
P        4.54564338       5.74855508       6.34062486       0.01873024       0.04273182       0.04707248
P        3.31314659       1.93295652       2.13920801       0.07818964       0.00515769       0.00598654
P        2.70087176       4.92228024       5.42446337      -0.07818964      -0.00515769      -0.00598654
P        1.51999919       3.22165700       1.89878353      -0.01952495       0.06839438      -0.00599897
P        4.50001907       5.27668477       4.17090990       0.01981991       0.01238111      -0.06744539
P        4.49401916       3.63357976       5.66488785       0.01952495      -0.06839438       0.00599897
P        1.51399928       1.57855199       3.39276148      -0.01981991      -0.01238111       0.06744539
8
Lattice="5.9989238 -0.00402778 0.01966281 0.0195276 6.77544097 0.72974072 -0.00490774 0.08370693 6.81413766" Properties=species:S:1:pos:R:3:forces:R:3 energy=-29.96628926 stress="0.006845934941007473 5.16210066520027e-05 5.727500252386657e-05 5.16210066520027e-05 0.0067524899187444195 3.452746050705573e-05 5.727500252386657e-05 3.452746050705573e-05 0.006759488585342363" free_energy=-29.96628926 pbc="T T T"
P        1.46748637       1.10519470       1.22140755       0.01105120       0.01121458       0.01237839
P        4.54605729       5.74992542       6.34213364      -0.01105120      -0.01121458      -0.01237839
P        3.31524341       1.93289167       2.13914510      -0.00533792       0.00693192       0.00760241
P        2.69830025       4.92222845       5.42439609       0.00533792      -0.00693192      -0.00760241
P        1.51914863       3.22374524       1.89838376       0.00722634      -0.00980883       0.00928572
P        4.50040473       5.27716076       4.16874192      -0.00729920      -0.01014527       0.00885736
P        4.49439503       3.63137488       5.66515743      -0.00722634       0.00980883      -0.00928572
P        1.51313893       1.57795936       3.39479927       0.00729920       0.01014527      -0.00885736
8
Lattice="5.94335452 -0.00470595 0.01869377 0.01844308 6.71477853 0.72335451 -0.00577294 0.08310782 6.75313943" Properties=species:S:1:pos:R:3:forces:R:3 energy=-30.01564491 stress="0.0066755271117734695 3.0392760303596112e-05 3.3974687492831005e-05 3.0392760303596112e-05 0.006666324699374867 0.0001399458381111836 3.3974687492831005e-05 0.0001399458381111836 0.006693242705442429" free_energy=-30.01564491 pbc="T T T"
P        1.44968464       1.08748562       1.20185927       0.00524265       0.01127804       0.01242485
P        4.50634002       5.70569478       6.29332844      -0.00524265      -0.01127804      -0.01242485
P        3.29663585       1.91539831       2.11983084       0.00477432       0.00786182       0.00866576
P        2.65938881       4.87778209       5.37535687      -0.00477432      -0.00786182      -0.00866576
P        1.50075278       3.20625070       1.87948087       0.00369760      -0.00540717       0.00329890
P        4.46128009       5.23230563       4.11966408      -0.00373115      -0.00378210       0.00505635
P        4.45527188       3.58692970       5.61570684      -0.00369760       0.00540717      -0.00329890
P        1.49474457       1.56087477       3.37552363       0.00373115       0.00378210      -0.00505635
8
Lattice="5.77664668 -0.00674046 0.01578663 0.01518952 6.5327912 0.70419589 -0.00836854 0.08131048 6.57014473" Properties=species:S:1:pos:R:3:forces:R:3 energy=-30.1533861 stress="0.005058229201942428 -5.168888930525581e-05 -5.647046575603109e-05 -5.168888930525581e-05 0.0054005702415502385 0.00047968541671532553 -5.647046575603109e-05 0.00047968541671532553 0.005491572193586711" free_energy=-30.1533861 pbc="T T T"
P        1.39663092       1.03498989       1.14391041      -0.02377583      -0.00986412      -0.01094423
P        4.38683674       5.57237133       6.14621684       0.02377583       0.00986412       0.01094423
P        3.23974141       1.86289091       2.06185371       0.06759771       0.00946034       0.01067614
P        2.54372625       4.74447031       5.22827354      -0.06759771      -0.00946034      -0.01067614
P        1.44586795       3.15282583       1.82292504      -0.01748448       0.03708312      -0.01988443
P        4.34359912       5.09749999       3.97335193       0.01770476       0.02324210      -0.03496571
P        4.33759971       3.45453539       5.46720221       0.01748448      -0.03708312       0.01988443
P        1.43986854       1.50986123       3.31677532      -0.01770476      -0.02324210       0.03496571
8
Lattice="5.44323101 -0.01080948 0.00997237 0.0086824 6.16881653 0.66587864 -0.01355974 0.0777158 6.20415533" Properties=species:S:1:pos:R:3:forces:R:3 energy=-30.30127965 stress="-0.00580174791550672 -0.00034578022972484506 -0.00038363464553183425 -0.00034578022972484506 -0.003858629192150549 0.0012213968701046722 -0.00038363464553183425 0.0012213968701046722 -0.0036286611067243455" free_energy=-30.30127965 pbc="T T T"
P        1.29197219       0.93259524       1.03087451      -0.12117246      -0.13319424      -0.14697617
P        4.14638148       5.30312761       5.84913183       0.12117246       0.13319424       0.14697617
P        3.12154148       1.75776147       1.94575565       0.32040130       0.00761210       0.00965871
P        2.31681219       4.47796138       4.93425069      -0.32040130      -0.00761210      -0.00965871
P        1.33734290       3.04210701       1.71044243      -0.09867406       0.23338375      -0.08384647
P        4.10697484       4.82690047       3.68451506       0.09991046       0.10521004      -0.22401678
P        4.10101077       3.19361584       5.16956391       0.09867406      -0.23338375       0.08384647
P        1.33137883       1.40882238       3.19549128      -0.09991046      -0.10521004       0.22401678
8
Lattice="5.39945814 -0.00922736 0.01153661 0.0105013 6.10474576 0.64863979 -0.01154738 0.06662474 6.13874518" Properties=species:S:1:pos:R:3:forces:R:3 energy=-30.26192387 stress="0.008136677929734526 -0.00028291707925039275 -0.00031029927259315556 -0.00028291707925039275 0.007858287779604081 -7.244619506558711e-05 -0.00031029927259315556 -7.244619506558711e-05 0.007842201769069778" free_energy=-30.26192387 pbc="T T T"
P        1.26889450       0.90139878       0.99647138       0.21836080       0.30577947       0.33717897
P        4.12951756       5.26074436       5.80245020      -0.21836080      -0.30577947      -0.33717897
P        3.13645402       1.73814378       1.92423964      -0.59920673       0.01155538       0.01030232
P        2.26195804       4.42399936       4.87468194       0.59920673      -0.01155538      -0.01030232
P        1.31629462       3.04093014       1.68022396       0.19510605      -0.48810123       0.12395813
P        4.08818634       4.78320696       3.60754507      -0.19750520      -0.16891529       0.47342803
P        4.08211744       3.12121300       5.11869762      -0.19510605       0.48810123      -0.12395813
P        1.31022572       1.37893618       3.19137651       0.19750520       0.16891529      -0.47342803
8
Lattice="5.43217459 -0.01040986 0.01036747 0.00914183 6.15263314 0.66152434 -0.01305144 0.07491435 6.18763363" Properties=species:S:1:pos:R:3:forces:R:3 energy=-30.30678431 stress="-0.002228634523587726 -0.000332869193743262 -0.00036816588904253723 -0.000332869193743262 -0.0009079583493570349 0.0008843095646299922 -0.00036816588904253723 0.0008843095646299922 -0.0007421224567652861" free_energy=-30.30678431 pbc="T T T"
P        1.28619640       0.92485329       1.02233657      -0.03246232      -0.02123720      -0.02348745
P        4.14206858       5.29228434       5.83718887       0.03246232       0.02123720       0.02348745
P        3.12513068       1.75280750       1.94032160       0.07937841       0.00877852       0.00997357
P        2.30313430       4.46433013       4.91920384      -0.07937841      -0.00877852      -0.00997357
P        1.33208337       3.04162688       1.70282190      -0.02198686       0.04689547      -0.02872715
P        4.10217138       4.81583478       3.66525416       0.02227845       0.03295760      -0.04387851
P        4.09618161       3.17551075       5.15670354       0.02198686      -0.04689547       0.02872715
P        1.32609360       1.40130285       3.19427128      -0.02227845      -0.03295760       0.04387851
8
Lattice="5.42933817 -0.01030734 0.01046884 0.00925969 6.14848144 0.66040729 -0.01292105 0.07419566 6.18339514" Properties=species:S:1:pos:R:3:forces:R:3 energy=-30.30653625 stress="-0.0012910161858230007 -0.00032925533499333914 -0.0003638914788988039 -0.00032925533499333914 -0.00012089713299104459 0.000800825628924319 -0.0003638914788988039 0.000800825628924319 2.9058906112830982e-05" free_energy=-30.30653625 pbc="T T T"
P        1.28469682       0.92282090       1.02009530      -0.00945103       0.00848245       0.00929120
P        4.14097999       5.28954886       5.83417597       0.00945103      -0.00848245      -0.00929120
P        3.12611100       1.75153626       1.93892741       0.01695640       0.00907830       0.01005258
P        2.29956581       4.46083350       4.91534386      -0.01695640      -0.00907830      -0.01005258
P        1.33071495       3.04156509       1.70086277      -0.00207885      -0.00199682      -0.01463974
P        4.10095849       4.81300587       3.66025233       0.00212406       0.01437591       0.00338417
P        4.09496186       3.17080467       5.15340850       0.00207885       0.00199682       0.01463974
P        1.32471832       1.39936389       3.19401894      -0.00212406      -0.01437591      -0.00338417
8
Lattice="5.42948442 -0.01031262 0.01046361 0.00925361 6.14869551 0.66046489 -0.01292777 0.07423272 6.18361368" Properties=species:S:1:pos:R:3:forces:R:3 energy=-30.30656677 stress="-0.0013390426824033707 -0.0003294527601684999 -0.00036412385652506956 -0.0003294527601684999 -0.0001611764000594759 0.0008051699939023353 -0.00036412385652506956 0.0008051699939023353 -1.0394072528461153e-05" free_energy=-30.30656677 pbc="T T T"
P        1.28477413       0.92292567       1.02021083      -0.01063231       0.00695550       0.00760709
P        4.14103613       5.28968994       5.83433135       0.01063231      -0.00695550      -0.00760709
P        3.12606045       1.75160178       1.93899926       0.02015981       0.00906304       0.01004866
P        2.29974981       4.46101383       4.91554292      -0.02015981      -0.00906304      -0.01004866
P        1.33078549       3.04156824       1.70096379      -0.00310108       0.00051393      -0.01536250
P        4.10102104       4.81315173       3.66051027       0.00315893       0.01532947       0.00095704
P        4.09502477       3.17104737       5.15357839       0.00310108      -0.00051393       0.01536250
P        1.32478922       1.39946388       3.19403191      -0.00315893      -0.01532947      -0.00095704
8
Lattice="5.44031489 -0.0082779 0.01274494 0.01187062 6.1524486 0.65545437 -0.01034402 0.06887838 6.186884" Properties=species:S:1:pos:R:3:forces:R:3 energy=-30.30711197 stress="-0.00045719001918418213 -0.00017168514783510693 -0.00018851945914001944 -0.00017168514783510693 -0.0003436709990968806 0.0002071733014268186 -0.00018851945914001944 0.0002071733014268186 -0.00030557236552081386" free_energy=-30.30711197 pbc="T T T"
P        1.28829245       0.92452142       1.02198000       0.01063741      -0.02321727      -0.02549207
P        4.15354904       5.28852766       5.83310331      -0.01063741       0.02321727       0.02549207
P        3.13272525       1.75270382       1.94023808      -0.01363137      -0.00047180      -0.00057364
P        2.30911624       4.46034526       4.91484523       0.01363137       0.00047180       0.00057364
P        1.33574556       3.04110918       1.69945584       0.00171488       0.01551660       0.00846056
P        4.11209593       4.81506264       3.66163341      -0.00168358      -0.00694372      -0.01625537
P        4.10609593       3.17193990       5.15562747      -0.00171488      -0.01551660      -0.00846056
P        1.32974556       1.39798644       3.19344990       0.00168358       0.00694372       0.01625537
8
Lattice="5.44686615 -0.00704711 0.01412489 0.01345363 6.1547188 0.65242354 -0.00878113 0.06563959 6.18886219" Properties=species:S:1:pos:R:3:forces:R:3 energy=-30.30705192 stress="6.957352176587197e-05 -7.76174289310913e-05 -8.380104805983199e-05 -7.76174289310913e-05 -0.0004581844913162274 -0.00015242729598566866 -8.380104805983199e-05 -0.00015242729598566866 -0.00048785377957251495" free_energy=-30.30705192 pbc="T T T"
P        1.29042115       0.92548654       1.02305001       0.02339757      -0.04171302      -0.04578280
P        4.16111750       5.28782474       5.83236061      -0.02339757       0.04171302       0.04578280
P        3.13675605       1.75337031       1.94098727      -0.03397588      -0.00618721      -0.00694126
P        2.31478260       4.45994097       4.91442335       0.03397588       0.00618721       0.00694126
P        1.33874591       3.04083117       1.69854414       0.00466013       0.02482242       0.02288562
P        4.11879498       4.81621803       3.66231306      -0.00464401      -0.02040919      -0.02689831
P        4.11279274       3.17248011       5.15686648      -0.00466013      -0.02482242      -0.02288562
P        1.33274367       1.39709325       3.19309756       0.00464401       0.02040919       0.02689831
8
Lattice="5.4428752 -0.00779689 0.01328424 0.01248928 6.15333582 0.65426989 -0.00973322 0.06761262 6.1876571" Properties=species:S:1:pos:R:3:forces:R:3 energy=-30.30712354 stress="-0.00025088418766171526 -0.00013486945021835636 -0.00014753528227242 -0.00013486945021835636 -0.0003881747754435839 6.663953188050414e-05 -0.00014753528227242 6.663953188050414e-05 -0.00037655975762444484" free_energy=-30.30712354 pbc="T T T"
P        1.28912460       0.92489857       1.02239813       0.01563297      -0.03042144      -0.03339529
P        4.15650666       5.28825298       5.83281310      -0.01563297       0.03042144       0.03339529
P        3.13430026       1.75296427       1.94053084      -0.02160172      -0.00271400      -0.00307167
P        2.31133100       4.46018728       4.91468039       0.02160172       0.00271400       0.00307167
P        1.33691813       3.04100042       1.69909969       0.00288037       0.01913275       0.01410123
P        4.11471400       4.81551402       3.66189912      -0.00285509      -0.01221126      -0.02039453
P        4.10871313       3.17215113       5.15611154      -0.00288037      -0.01913275      -0.01410123
P        1.33091726       1.39763753       3.19331211       0.00285509       0.01221126       0.02039453
8
Lattice="5.44958399 -0.00594542 0.01534746 0.01485864 6.15800103 0.6517572 -0.00739168 0.06465931 6.19207149" Properties=species:S:1:pos:R:3:forces:R:3 energy=-30.30683128 stress="0.00022718590776730428 1.820621373530905e-05 1.8831600466704303e-05 1.820621373530905e-05 0.0006090558539749228 9.363977607230855e-05 1.8831600466704303e-05 9.363977607230855e-05 0.0006270436523398807" free_energy=-30.30683128 pbc="T T T"
P        1.29225284       0.92474583       1.02224271       0.03085839       0.00499196       0.00561418
P        4.16479811       5.29196909       5.83693344      -0.03085839      -0.00499196      -0.00561418
P        3.13796940       1.75455859       1.94229904      -0.03875390      -0.00906489      -0.01012537
P        2.31908155       4.46215633       4.91687711       0.03875390       0.00906489       0.01012537
P        1.34059227       3.04327363       1.69987953       0.00373632      -0.02241411       0.02205810
P        4.12246586       4.81853138       3.66351376      -0.00390606      -0.02406954       0.02020673
P        4.11645868       3.17344129       5.15929662      -0.00373632       0.02241411      -0.02205810
P        1.33458509       1.39818354       3.19566239       0.00390606       0.02406954      -0.02020673
8
Lattice="5.44890266 -0.00613346 0.01513793 0.01461801 6.15752724 0.65201238 -0.00762948 0.06495924 6.19162317" Properties=species:S:1:pos:R:3:forces:R:3 energy=-30.30688558 stress="0.0001791014837407369 2.80057762780207e-06 2.087778561098824e-06 2.80057762780207e-06 0.0005086425487803498 9.06836912446351e-05 2.087778561098824e-06 9.06836912446351e-05 0.0005259434815490225" free_energy=-30.30688558 pbc="T T T"
P        1.29193514       0.92476130       1.02225845       0.02931427       0.00140957       0.00166800
P        4.16395605       5.29159172       5.83651503      -0.02931427      -0.00140957      -0.00166800
P        3.13759676       1.75439661       1.94211940      -0.03700883      -0.00841967      -0.00940875
P        2.31829443       4.46195641       4.91665408       0.03700883       0.00841967       0.00940875
P        1.34021912       3.04304273       1.69980033       0.00364356      -0.01820593       0.02123896
P        4.12167861       4.81822493       3.66334981      -0.00379349      -0.02285532       0.01609560
P        4.11567207       3.17331029       5.15897315      -0.00364356       0.01820593      -0.02123896
P        1.33421258       1.39812809       3.19542367       0.00379349       0.02285532      -0.01609560
8
Lattice="5.45216947 -0.00506064 0.01633094 0.01598828 6.15811717 0.64994133 -0.00626912 0.06283611 6.19201894" Properties=species:S:1:pos:R:3:forces:R:3 energy=-30.30723953 stress="-0.0002338864237158141 3.311920128600094e-05 3.4396345124848304e-05 3.311920128600094e-05 0.0004476299308636124 0.00019409422529503934 3.4396345124848304e-05 0.00019409422529503934 0.0004848791137721737" free_energy=-30.30723953 pbc="T T T"
P        1.29436107       0.92433022       1.02179408       0.01992501       0.00292996       0.00330245
P        4.16752756       5.29156242       5.83649713      -0.01992501      -0.00292996      -0.00330245
P        3.13840394       1.75438975       1.94211509      -0.00890268      -0.00970418      -0.01070859
P        2.32348469       4.46150289       4.91617612       0.00890268       0.00970418       0.01070859
P        1.34229117       3.04275928       1.70001897      -0.00605872      -0.01071157       0.01329606
P        4.12560210       4.81752828       3.66312145       0.00596747      -0.01427624       0.00942387
P        4.11959746       3.17313336       5.15827224       0.00605872       0.01071157      -0.01329606
P        1.33628653       1.39836436       3.19516976      -0.00596747       0.01427624      -0.00942387
8
Lattice="5.45699619 -0.00347556 0.01809364 0.01801286 6.15898879 0.64688135 -0.00425918 0.05969918 6.1926037" Properties=species:S:1:pos:R:3:forces:R:3 energy=-30.30755247 stress="-0.0008481214569973583 7.777059556504046e-05 8.19659944447493e-05 7.777059556504046e-05 0.0003551190066148293 0.000346684842850005 8.19659944447493e-05 0.000346684842850005 0.00042180271589692647" free_energy=-30.30755247 pbc="T T T"
P        1.29794665       0.92369405       1.02110881       0.00596602       0.00512188       0.00565710
P        4.17280322       5.29151836       5.83646988      -0.00596602      -0.00512188      -0.00565710
P        3.13959393       1.75437887       1.94210792       0.03293478      -0.01160894      -0.01263546
P        2.33115594       4.46083354       4.91547077      -0.03293478       0.01160894       0.01263546
P        1.34535330       3.04233981       1.70034252      -0.02049958       0.00050910       0.00150554
P        4.13139840       4.81649843       3.66278467       0.02049584      -0.00153240      -0.00057511
P        4.12539657       3.17287260       5.15723617       0.02049958      -0.00050910      -0.00150554
P        1.33935147       1.39871398       3.19479402      -0.02049584       0.00153240       0.00057511
8
Lattice="5.46274253 -0.00273417 0.01893211 0.01897848 6.15811991 0.64354945 -0.00330221 0.05646089 6.19142617" Properties=species:S:1:pos:R:3:forces:R:3 energy=-30.30778545 stress="-0.000585418815768055 -1.891518675691813e-05 -2.2945909659849658e-05 -1.891518675691813e-05 0.00021080230831939002 0.0002888674157340444 -2.2945909659849658e-05 0.0002888674157340444 0.00026569287959491366" free_energy=-30.30778545 pbc="T T T"
P        1.30088530       0.92295236       1.02030488       0.00029592      -0.00379759      -0.00417547
P        4.17753350       5.28889427       5.83360285      -0.00029592       0.00379759       0.00417547
P        3.14247658       1.75320618       1.94082974       0.02368619      -0.00689404      -0.00748706
P        2.33594222       4.45864045       4.91307799      -0.02368619       0.00689404       0.00748706
P        1.34725930       3.04104722       1.69947435      -0.01396421       0.00767707      -0.00261636
P        4.13715935       4.81388191       3.66047589       0.01400421       0.00327690      -0.00734343
P        4.13115950       3.17079941       5.15443338       0.01396421      -0.00767707       0.00261636
P        1.34125945       1.39796472       3.19343184      -0.01400421      -0.00327690       0.00734343
8
Lattice="5.46675165 -0.00221691 0.0195171 0.01965218 6.15751372 0.64122484 -0.00263455 0.05420158 6.19060464" Properties=species:S:1:pos:R:3:forces:R:3 energy=-30.30789759 stress="-0.00040423167557932204 -8.630039797420068e-05 -9.606809761282469e-05 -8.630039797420068e-05 0.00010953905937809076 0.00024887921520218954 -9.606809761282469e-05 0.00024887921520218954 0.00015626901975075933" free_energy=-30.30789759 pbc="T T T"
P        1.30293614       0.92243509       1.01974422      -0.00366907      -0.01002847      -0.01104423
P        4.18083314       5.28706330       5.83160236       0.00366907       0.01002847       0.01104423
P        3.14448724       1.75238805       1.93993802       0.01726968      -0.00359820      -0.00388801
P        2.33928204       4.45711034       4.91140856      -0.01726968       0.00359820       0.00388801
P        1.34858901       3.04014518       1.69886866      -0.00941292       0.01270644      -0.00549930
P        4.14117873       4.81205638       3.65886534       0.00948358       0.00664205      -0.01209314
P        4.13518027       3.16935321       5.15247792       0.00941292      -0.01270644       0.00549930
P        1.34259055       1.39744201       3.19248124      -0.00948358      -0.00664205       0.01209314
8
Lattice="5.47476989 -0.0011824 0.02068708 0.02099957 6.15630132 0.63657563 -0.00129923 0.04968298 6.18896156" Properties=species:S:1:pos:R:3:forces:R:3 energy=-30.30799542 stress="-4.496121030903012e-05 -0.00022091111891476179 -0.0002421420428705834 -0.00022091111891476179 -9.431510735972912e-05 0.00016943485285938835 -0.0002421420428705834 0.00016943485285938835 -6.380370845066822e-05" free_energy=-30.30799542 pbc="T T T"
P        1.30704035       0.92140128       1.01862371      -0.01163713      -0.02252949      -0.02482509
P        4.18742988       5.28340062       5.82760056       0.01163713       0.02252949       0.02482509
P        3.14850624       1.75075213       1.93815495       0.00453092       0.00299154       0.00330835
P        2.34596399       4.45404977       4.90806932      -0.00453092      -0.00299154      -0.00330835
P        1.35124821       3.03834031       1.69765724      -0.00033249       0.02284465      -0.01128575
P        4.14921771       4.80840528       3.65564500       0.00046485       0.01340030      -0.02166963
P        4.14322202       3.16646159       5.14856703       0.00033249      -0.02284465       0.01128575
P        1.34525252       1.39639662       3.19057927      -0.00046485      -0.01340030       0.02166963
8
Lattice="5.48001333 0.00047282 0.02252858 0.02310913 6.15594675 0.63283689 0.00079813 0.04598633 6.18826159" Properties=species:S:1:pos:R:3:forces:R:3 energy=-30.30780332 stress="0.00045788484894611196 -0.00016840062231421123 -0.0001846120310083606 -0.00016840062231421123 0.0003836251272304173 8.144479722519241e-05 -0.0001846120310083606 8.144479722519241e-05 0.0003977903507802827" free_energy=-30.30780332 pbc="T T T"
P        1.30966466       0.92020401       1.01731746      -0.00124280      -0.00746236      -0.00821224
P        4.19425593       5.28220189       5.82630960       0.00124280       0.00746236       0.00821224
P        3.15200888       1.75027170       1.93764063      -0.02005026       0.00102962       0.00105187
P        2.35191171       4.45213420       4.90598643       0.02005026      -0.00102962      -0.00105187
P        1.35386103       3.03819497       1.69647396       0.00624311      -0.00070314      -0.00401884
P        4.15605900       4.80718387       3.65329523      -0.00623122       0.00395895       0.00105852
P        4.15005956       3.16421093       5.14715310      -0.00624311       0.00070314       0.00401884
P        1.34786159       1.39522203       3.19033183       0.00623122      -0.00395895      -0.00105852
8
Lattice="5.4809282 0.00076163 0.02284989 0.0234772 6.15588489 0.63218456 0.00116407 0.04534133 6.18813945" Properties=species:S:1:pos:R:3:forces:R:3 energy=-30.30775258 stress="0.0005452535436222988 -0.00015927348251566748 -0.00017461300855851311 -0.00015927348251566748 0.00046678939156319014 6.612575581529794e-05 -0.00017461300855851311 6.612575581529794e-05 0.0004781086242648536" free_energy=-30.30775258 pbc="T T T"
P        1.31012257       0.91999511       1.01708955       0.00056074      -0.00484043      -0.00532134
P        4.19544690       5.28199274       5.82608435      -0.00056074       0.00484043       0.00532134
P        3.15261998       1.75018789       1.93755090      -0.02433067       0.00068651       0.00065732
P        2.35294949       4.45179996       4.90562300       0.02433067      -0.00068651      -0.00065732
P        1.35431693       3.03816963       1.69626745       0.00738401      -0.00480131      -0.00275332
P        4.15725264       4.80697082       3.65288523      -0.00739308       0.00231499       0.00501398
P        4.15125254       3.16381822       5.14690645      -0.00738401       0.00480131       0.00275332
P        1.34831683       1.39501703       3.19028867       0.00739308      -0.00231499      -0.00501398
8
Lattice="5.48305263 0.00293059 0.02524389 0.02621494 6.15316934 0.62833213 0.00389862 0.04175293 6.18508066" Properties=species:S:1:pos:R:3:forces:R:3 energy=-30.30800187 stress="0.00021346298876164454 -1.433350711891751e-05 -1.6557300646887585e-05 -1.433350711891751e-05 0.00041724092794851 6.879541154767549e-06 -1.6557300646887585e-05 6.879541154767549e-06 0.00041843317478022714" free_energy=-30.30800187 pbc="T T T"
P        1.31211428       0.91855818       1.01551718       0.00211224      -0.00386865      -0.00424633
P        4.20105191       5.27929468       5.82313950      -0.00211224       0.00386865       0.00424633
P        3.15400388       1.74942416       1.93671650      -0.00533374      -0.00627584      -0.00692370
P        2.35916231       4.44842870       4.90194018       0.00533374       0.00627584       0.00692370
P        1.35687347       3.03680431       1.69450485      -0.00325867      -0.00183443       0.00009002