8
Lattice="3.341123 0.0 0.0 0.0 10.716646 0.0 0.0 0.0 4.469533" Properties=species:S:1:pos:R:3:forces:R:3 energy=-31.68911497 stress="-1.1532136819456454e-05 -0.0 -0.0 -0.0 -0.00023584334279657965 -0.0 -0.0 -0.0 6.584931313460345e-05" free_energy=-31.69085365 pbc="T T T"
P        1.67056150       6.43752140       1.86744240       0.00000000       0.00324003      -0.00186071
P        0.00000000       6.43752140       0.36732410       0.00000000       0.00324003       0.00186071
P        1.67056150       9.63744760       4.10220890       0.00000000      -0.00324003      -0.00186071
P        0.00000000       9.63744760       2.60209060       0.00000000      -0.00324003       0.00186071
P        0.00000000       1.07919840       1.86744240       0.00000000       0.00324003      -0.00186071
P        1.67056150       1.07919840       0.36732410       0.00000000       0.00324003       0.00186071
P        0.00000000       4.27912460       4.10220890       0.00000000      -0.00324003      -0.00186071
P        1.67056150       4.27912460       2.60209060       0.00000000      -0.00324003       0.00186071
8
Lattice="3.39123984 0.0 0.0 0.0 10.716646 0.0 0.0 0.0 4.469533" Properties=species:S:1:pos:R:3:forces:R:3 energy=-31.66630514 stress="0.01623710410716786 -0.0 -0.0 -0.0 0.0016810985224931826 -0.0 -0.0 -0.0 0.00526274077435346" free_energy=-31.66770974 pbc="T T T"
P        1.69561992       6.43752140       1.86744240       0.00000000      -0.02137804      -0.04237746
P        0.00000000       6.43752140       0.36732410       0.00000000      -0.02137804       0.04237746
P        1.69561992       9.63744760       4.10220890       0.00000000       0.02137804      -0.04237746
P        0.00000000       9.63744760       2.60209060       0.00000000       0.02137804       0.04237746
P        0.00000000       1.07919840       1.86744240       0.00000000      -0.02137804      -0.04237746
P        1.69561992       1.07919840       0.36732410       0.00000000      -0.02137804       0.04237746
P        0.00000000       4.27912460       4.10220890       0.00000000       0.02137804      -0.04237746
P        1.69561992       4.27912460       2.60209060       0.00000000       0.02137804       0.04237746
8
Lattice="3.29100615 0.0 0.0 0.0 10.716646 0.0 0.0 0.0 4.469533" Properties=species:S:1:pos:R:3:forces:R:3 energy=-31.6709385 stress="-0.018487649947862728 -0.0 -0.0 -0.0 -0.0021606268778728644 -0.0 -0.0 -0.0 -0.005701545860430021" free_energy=-31.67284807 pbc="T T T"
P        1.64550307       6.43752140       1.86744240       0.00000000       0.02976248       0.04951627
P        0.00000000       6.43752140       0.36732410       0.00000000       0.02976248      -0.04951627
P        1.64550307       9.63744760       4.10220890       0.00000000      -0.02976248       0.04951627
P        0.00000000       9.63744760       2.60209060       0.00000000      -0.02976248      -0.04951627
P        0.00000000       1.07919840       1.86744240       0.00000000       0.02976248       0.04951627
P        1.64550307       1.07919840       0.36732410       0.00000000       0.02976248      -0.04951627
P        0.00000000       4.27912460       4.10220890       0.00000000      -0.02976248       0.04951627
P        1.64550307       4.27912460       2.60209060       0.00000000      -0.02976248      -0.04951627
8
Lattice="3.341123 0.0 0.0 0.0 10.87739569 0.0 0.0 0.0 4.469533" Properties=species:S:1:pos:R:3:forces:R:3 energy=-31.67141581 stress="0.0018808283686572193 -0.0 -0.0 -0.0 0.012900841911973056 -0.0 -0.0 -0.0 0.0017809932394190133" free_energy=-31.67308523 pbc="T T T"
P        1.67056150       6.53408422       1.86744240       0.00000000      -0.17954509       0.02337080
P        0.00000000       6.53408422       0.36732410       0.00000000      -0.17954509      -0.02337080
P        1.67056150       9.78200931       4.10220890       0.00000000       0.17954509       0.02337080
P        0.00000000       9.78200931       2.60209060       0.00000000       0.17954509      -0.02337080
P        0.00000000       1.09538638       1.86744240       0.00000000      -0.17954509       0.02337080
P        1.67056150       1.09538638       0.36732410       0.00000000      -0.17954509      -0.02337080
P        0.00000000       4.34331147       4.10220890       0.00000000       0.17954509       0.02337080
P        1.67056150       4.34331147       2.60209060       0.00000000       0.17954509      -0.02337080
8
Lattice="3.341123 0.0 0.0 0.0 10.55589631 0.0 0.0 0.0 4.469533" Properties=species:S:1:pos:R:3:forces:R:3 energy=-31.67334692 stress="-0.001932145732131757 -0.0 -0.0 -0.0 -0.015309145372345206 -0.0 -0.0 -0.0 -0.001943807155571247" free_energy=-31.67516588 pbc="T T T"
P        1.67056150       6.34095858       1.86744240       0.00000000       0.21443727      -0.03933749
P        0.00000000       6.34095858       0.36732410       0.00000000       0.21443727       0.03933749
P        1.67056150       9.49288588       4.10220890       0.00000000      -0.21443727      -0.03933749
P        0.00000000       9.49288588       2.60209060       0.00000000      -0.21443727       0.03933749
P        0.00000000       1.06301043       1.86744240       0.00000000       0.21443727      -0.03933749
P        1.67056150       1.06301043       0.36732410       0.00000000       0.21443727       0.03933749
P        0.00000000       4.21493773       4.10220890       0.00000000      -0.21443727      -0.03933749
P        1.67056150       4.21493773       2.60209060       0.00000000      -0.21443727       0.03933749
8
Lattice="3.341123 0.0 0.0 0.0 10.716646 0.0 0.0 0.0 4.53657599" Properties=species:S:1:pos:R:3:forces:R:3 energy=-31.67268259 stress="0.005034118795200435 -0.0 -0.0 -0.0 0.0016072684849902411 -0.0 -0.0 -0.0 0.011827238866173326" free_energy=-31.67439082 pbc="T T T"
P        1.67056150       6.43752140       1.89545403       0.00000000      -0.03287400      -0.19333152
P        0.00000000       6.43752140       0.37283396       0.00000000      -0.03287400       0.19333152
P        1.67056150       9.63744760       4.16374203       0.00000000       0.03287400      -0.19333152
P        0.00000000       9.63744760       2.64112196       0.00000000       0.03287400       0.19333152
P        0.00000000       1.07919840       1.89545403       0.00000000      -0.03287400      -0.19333152
P        1.67056150       1.07919840       0.37283396       0.00000000      -0.03287400       0.19333152
P        0.00000000       4.27912460       4.16374203       0.00000000       0.03287400      -0.19333152
P        1.67056150       4.27912460       2.64112196       0.00000000       0.03287400       0.19333152
8
Lattice="3.341123 0.0 0.0 0.0 10.716646 0.0 0.0 0.0 4.40249" Properties=species:S:1:pos:R:3:forces:R:3 energy=-31.67690439 stress="-0.005932867978845994 -0.0 -0.0 -0.0 -0.00212298892384387 -0.0 -0.0 -0.0 -0.0121818210842788" free_energy=-31.67862306 pbc="T T T"
P        1.67056150       6.43752140       1.83943076       0.00000000       0.04007556       0.19777742
P        0.00000000       6.43752140       0.36181424       0.00000000       0.04007556      -0.19777742
P        1.67056150       9.63744760       4.04067576       0.00000000      -0.04007556       0.19777742
P        0.00000000       9.63744760       2.56305924       0.00000000      -0.04007556      -0.19777742
P        0.00000000       1.07919840       1.83943076       0.00000000       0.04007556       0.19777742
P        1.67056150       1.07919840       0.36181424       0.00000000       0.04007556      -0.19777742
P        0.00000000       4.27912460       4.04067576       0.00000000      -0.04007556       0.19777742
P        1.67056150       4.27912460       2.56305924       0.00000000      -0.04007556      -0.19777742
8
Lattice="3.341123 0.05011685 0.0 0.0 10.716646 0.0 0.0 0.0 4.469533" Properties=species:S:1:pos:R:3:forces:R:3 energy=-31.68373297 stress="4.927658971866581e-05 0.004472031358454335 -0.0 0.004472031358454335 -0.0002815332617790749 -0.0 -0.0 -0.0 6.136286644284556e-05" free_energy=-31.68549739 pbc="T T T"
P        1.67056150       6.46257983       1.86744240      -0.06144630       0.00348343      -0.00183111
P        0.00000000       6.43752140       0.36732410      -0.06144630       0.00348343       0.00183111
P        1.67056150       9.66250602       4.10220890       0.06144630      -0.00348343      -0.00183111
P        0.00000000       9.63744760       2.60209060       0.06144630      -0.00348343       0.00183111
P        0.00000000       1.07919840       1.86744240      -0.06144630       0.00348343      -0.00183111
P        1.67056150       1.10425683       0.36732410      -0.06144630       0.00348343       0.00183111
P        0.00000000       4.27912460       4.10220890       0.06144630      -0.00348343      -0.00183111
P        1.67056150       4.30418302       2.60209060       0.06144630      -0.00348343       0.00183111
8
Lattice="3.341123 -0.05011685 0.0 0.0 10.716646 0.0 0.0 0.0 4.469533" Properties=species:S:1:pos:R:3:forces:R:3 energy=-31.68373291 stress="4.9261841032601345e-05 -0.004472064844150796 -0.0 -0.004472064844150796 -0.00028153970925800197 -0.0 -0.0 -0.0 6.142231681726959e-05" free_energy=-31.68549733 pbc="T T T"
P        1.67056150       6.41246298       1.86744240       0.06145068       0.00348350      -0.00183226
P        0.00000000       6.43752140       0.36732410       0.06145068       0.00348350       0.00183226
P        1.67056150       9.61238917       4.10220890      -0.06145068      -0.00348350      -0.00183226
P        0.00000000       9.63744760       2.60209060      -0.06145068      -0.00348350       0.00183226
P        0.00000000       1.07919840       1.86744240       0.06145068       0.00348350      -0.00183226
P        1.67056150       1.05413998       0.36732410       0.06145068       0.00348350       0.00183226
P        0.00000000       4.27912460       4.10220890      -0.06145068      -0.00348350      -0.00183226
P        1.67056150       4.25406617       2.60209060      -0.06145068      -0.00348350       0.00183226
8
Lattice="3.341123 0.0 0.0 0.0 10.716646 0.16074969 0.0 0.0 4.469533" Properties=species:S:1:pos:R:3:forces:R:3 energy=-31.68369993 stress="-5.032297872362014e-05 -0.0 -0.0 -0.0 -0.0003384692567347691 0.004539619418718209 -0.0 0.004539619418718209 9.938338129069274e-05" free_energy=-31.6854294 pbc="T T T"
P        1.67056150       6.43752140       1.96400522       0.00000000      -0.00875817      -0.08550835
P        0.00000000       6.43752140       0.46388692       0.00000000       0.01913673      -0.08184046
P        1.67056150       9.63744760       4.24677061       0.00000000      -0.01913673       0.08184046
P        0.00000000       9.63744760       2.74665231       0.00000000       0.00875817       0.08550835
P        0.00000000       1.07919840       1.88363038       0.00000000      -0.00875817      -0.08550835
P        1.67056150       1.07919840       0.38351208       0.00000000       0.01913673      -0.08184046
P        0.00000000       4.27912460       4.16639577       0.00000000      -0.01913673       0.08184046
P        1.67056150       4.27912460       2.66627747       0.00000000       0.00875817       0.08550835
8
Lattice="3.341123 0.0 0.0 0.0 10.716646 -0.16074969 0.0 0.0 4.469533" Properties=species:S:1:pos:R:3:forces:R:3 energy=-31.68370004 stress="-5.0373865747523455e-05 -0.0 -0.0 -0.0 -0.0003383687247472785 -0.004534301690392011 -0.0 -0.004534301690392011 9.91926844623696e-05" free_energy=-31.6854295 pbc="T T T"
P        1.67056150       6.43752140       1.77087958       0.00000000       0.01916418       0.08179139
P        0.00000000       6.43752140       0.27076128       0.00000000      -0.00878835       0.08546070
P        1.67056150       9.63744760       3.95764719       0.00000000       0.00878835      -0.08546070
P        0.00000000       9.63744760       2.45752889       0.00000000      -0.01916418      -0.08179139
P        0.00000000       1.07919840       1.85125442       0.00000000       0.01916418       0.08179139
P        1.67056150       1.07919840       0.35113612       0.00000000      -0.00878835       0.08546070
P        0.00000000       4.27912460       4.03802203       0.00000000       0.00878835      -0.08546070
P        1.67056150       4.27912460       2.53790373       0.00000000      -0.01916418      -0.08179139
8
Lattice="3.341123 0.0 0.0 0.0 10.716646 0.0 0.06704299 0.0 4.469533" Properties=species:S:1:pos:R:3:forces:R:3 energy=-31.67730645 stress="-0.00018970576405504872 -0.0 0.009924429843484083 -0.0 -0.00022149244683323746 -0.0 0.009924429843484083 -0.0 -0.0003717876869920683" free_energy=-31.67907318 pbc="T T T"
P        1.69857313       6.43752140       1.86744240      -0.16061002       0.00325208       0.00498889
P        0.00550986       6.43752140       0.36732410       0.16061002       0.00325208      -0.00498889
P        1.73209463       9.63744760       4.10220890      -0.16061002      -0.00325208       0.00498889
P        0.03903136       9.63744760       2.60209060       0.16061002      -0.00325208      -0.00498889
P        0.02801163       1.07919840       1.86744240      -0.16061002       0.00325208       0.00498889
P        1.67607136       1.07919840       0.36732410       0.16061002       0.00325208      -0.00498889
P        0.06153313       4.27912460       4.10220890      -0.16061002      -0.00325208       0.00498889
P        1.70959286       4.27912460       2.60209060       0.16061002      -0.00325208      -0.00498889
8
Lattice="3.341123 0.0 0.0 0.0 10.716646 0.0 -0.06704299 0.0 4.469533" Properties=species:S:1:pos:R:3:forces:R:3 energy=-31.67730644 stress="-0.00018974352518526027 -0.0 -0.00992378658731206 -0.0 -0.0002216429733088264 -0.0 -0.00992378658731206 -0.0 -0.0003717985035273834" free_energy=-31.67907317 pbc="T T T"
P        1.64254987       6.43752140       1.86744240       0.16057202       0.00325184       0.00498935
P       -0.00550986       6.43752140       0.36732410      -0.16057202       0.00325184      -0.00498935
P        1.60902837       9.63744760       4.10220890       0.16057202      -0.00325184       0.00498935
P       -0.03903136       9.63744760       2.60209060      -0.16057202      -0.00325184      -0.00498935
P       -0.02801163       1.07919840       1.86744240       0.16057202       0.00325184       0.00498935
P        1.66505164       1.07919840       0.36732410      -0.16057202       0.00325184      -0.00498935
P       -0.06153313       4.27912460       4.10220890       0.16057202      -0.00325184       0.00498935
P        1.63153014       4.27912460       2.60209060      -0.16057202      -0.00325184      -0.00498935
8
Lattice="3.341123 0.0 0.0 0.0 10.716646 0.0 0.0 0.0 4.469533" Properties=species:S:1:pos:R:3:forces:R:3 energy=-31.68797125 stress="-2.980417351000707e-05 0.00038379841648978827 0.001003852677114286 0.00038379841648978827 -0.00023811807952203517 -1.5555900439712622e-06 0.001003852677114286 -1.5555900439712622e-06 3.686918110845024e-05" free_energy=-31.68971058 pbc="T T T"
P        1.68556151       6.43752140       1.86744240      -0.15389643       0.00338061       0.00120954
P        0.00000000       6.43752140       0.36732410       0.12375970       0.00320828      -0.00104038
P        1.67056150       9.63744760       4.10220890      -0.00046691      -0.00324650      -0.00187099
P        0.00000000       9.63744760       2.60209060       0.00126567      -0.00322924       0.00185502
P        0.00000000       1.07919840       1.86744240       0.00093681       0.00325266      -0.00186692
P        1.67056150       1.07919840       0.36732410      -0.00008670       0.00325118       0.00186949
P        0.00000000       4.27912460       4.10220890       0.01150075      -0.00334302      -0.00198281
P        1.67056150       4.27912460       2.60209060       0.01698711      -0.00327397       0.00182705
8
Lattice="3.341123 0.0 0.0 0.0 10.716646 0.0 0.0 0.0 4.469533" Properties=species:S:1:pos:R:3:forces:R:3 energy=-31.68797143 stress="-2.9508806573642897e-05 -0.00038299381730686155 -0.001009475789998995 -0.00038299381730686155 -0.00023819822049921154 -1.5809180880040966e-06 -0.001009475789998995 -1.5809180880040966e-06 3.6890608209279396e-05" free_energy=-31.68971076 pbc="T T T"
P        1.65556149       6.43752140       1.86744240       0.15421925       0.00338324       0.00121146
P        0.00000000       6.43752140       0.36732410      -0.12401960       0.00321072      -0.00104055
P        1.67056150       9.63744760       4.10220890       0.00043617      -0.00324695      -0.00187159
P        0.00000000       9.63744760       2.60209060      -0.00128777      -0.00322920       0.00185455
P        0.00000000       1.07919840       1.86744240      -0.00096004       0.00325299      -0.00186776
P        1.67056150       1.07919840       0.36732410       0.00005579       0.00325182       0.00186928
P        0.00000000       4.27912460       4.10220890      -0.01150387      -0.00334652      -0.00197885
P        1.67056150       4.27912460       2.60209060      -0.01693994      -0.00327609       0.00182346
8
Lattice="3.341123 0.0 0.0 0.0 10.716646 0.0 0.0 0.0 4.469533" Properties=species:S:1:pos:R:3:forces:R:3 energy=-31.68798006 stress="0.0001539963364818062 -0.0 -0.0 -0.0 0.0009547290293352407 9.938797504140938e-05 -0.0 9.938797504140938e-05 0.0002996331326818972" free_energy=-31.68973288 pbc="T T T"
P        1.67056150       6.45252138       1.86744240       0.00000000      -0.12391242       0.00164408
P        0.00000000       6.43752140       0.36732410       0.00000000       0.02955828      -0.01126040
P        1.67056150       9.63744760       4.10220890       0.00000000      -0.00552936      -0.00000008
P        0.00000000       9.63744760       2.60209060       0.00000000       0.00112651       0.00298491
P        0.00000000       1.07919840       1.86744240       0.00000000       0.00616123      -0.00277717
P        1.67056150       1.07919840       0.36732410       0.00000000       0.00418307       0.00135938
P        0.00000000       4.27912460       4.10220890       0.00000000      -0.01431131       0.01021826
P        1.67056150       4.27912460       2.60209060       0.00000000       0.10272399      -0.00216898
8
Lattice="3.341123 0.0 0.0 0.0 10.716646 0.0 0.0 0.0 4.469533" Properties=species:S:1:pos:R:3:forces:R:3 energy=-31.68830864 stress="-0.0001672742733358452 -0.0 -0.0 -0.0 -0.001495695174233315 -7.423741456207873e-05 -0.0 -7.423741456207873e-05 -0.00015843939844363008" free_energy=-31.69002854 pbc="T T T"
P        1.67056150       6.42252142       1.86744240       0.00000000       0.13688397      -0.00837592
P        0.00000000       6.43752140       0.36732410       0.00000000      -0.02302659       0.01602533
P        1.67056150       9.63744760       4.10220890       0.00000000      -0.00091677      -0.00368686
P        0.00000000       9.63744760       2.60209060       0.00000000      -0.00756897       0.00073862
P        0.00000000       1.07919840       1.86744240       0.00000000       0.00039004      -0.00089063
P        1.67056150       1.07919840       0.36732410       0.00000000       0.00233279       0.00235994
P        0.00000000       4.27912460       4.10220890       0.00000000       0.00773510      -0.01437908
P        1.67056150       4.27912460       2.60209060       0.00000000      -0.11582957       0.00820859
8
Lattice="3.341123 0.0 0.0 0.0 10.716646 0.0 0.0 0.0 4.469533" Properties=species:S:1:pos:R:3:forces:R:3 energy=-31.68760968 stress="0.0002455016537462634 -0.0 -0.0 -0.0 -0.0004289381714088735 0.0005232612928663202 -0.0 0.0005232612928663202 0.0012805633806936651" free_energy=-31.68935741 pbc="T T T"
P        1.67056150       6.43752140       1.88244242       0.00000000       0.00837055      -0.18442462
P        0.00000000       6.43752140       0.36732410       0.00000000       0.01677665       0.14509091
P        1.67056150       9.63744760       4.10220890       0.00000000      -0.00507494      -0.00111366
P        0.00000000       9.63744760       2.60209060       0.00000000      -0.00211007       0.00325642
P        0.00000000       1.07919840       1.86744240       0.00000000       0.00230317      -0.00297503
P        1.67056150       1.07919840       0.36732410       0.00000000       0.00373285       0.00121955
P        0.00000000       4.27912460       4.10220890       0.00000000      -0.01559906       0.02610657
P        1.67056150       4.27912460       2.60209060       0.00000000      -0.00839915       0.01283984
8
Lattice="3.341123 0.0 0.0 0.0 10.716646 0.0 0.0 0.0 4.469533" Properties=species:S:1:pos:R:3:forces:R:3 energy=-31.68784996 stress="-0.0003243932368333308 -0.0 -0.0 -0.0 -4.251261010536399e-05 -0.0005229397365576638 -0.0 -0.0005229397365576638 -0.0011629936274251743" free_energy=-31.68958547 pbc="T T T"
P        1.67056150       6.43752140       1.85244238       0.00000000      -0.00159155       0.18530316
P        0.00000000       6.43752140       0.36732410       0.00000000      -0.01051257      -0.14598240
P        1.67056150       9.63744760       4.10220890       0.00000000      -0.00138255      -0.00261340
P        0.00000000       9.63744760       2.60209060       0.00000000      -0.00435967       0.00046929
P        0.00000000       1.07919840       1.86744240       0.00000000       0.00419046      -0.00075850
P        1.67056150       1.07919840       0.36732410       0.00000000       0.00273131       0.00251088
P        0.00000000       4.27912460       4.10220890       0.00000000       0.00900494      -0.02977046
P        1.67056150       4.27912460       2.60209060       0.00000000       0.00191962      -0.00915857
