1
Lattice="4.821539 0.0 2.783717 1.60718 4.54579 2.783717 -0.0 -0.0 5.567434" Properties=species:S:1:pos:R:3:forces:R:3 energy=-0.24325954 stress="0.0010059489628523233 7.48981095105991e-11 -0.0 7.48981095105991e-11 0.0010059487194334674 -0.0 -0.0 -0.0 0.0010059490814409966" free_energy=-0.24325954 pbc="T T T"
P        0.00000000       0.00000000       0.00000000       0.00000000       0.00000000      -0.00000000
1
Lattice="4.79298659 -0.0 2.76723226 1.59766253 4.51887054 2.76723226 0.0 -0.0 5.53446451" Properties=species:S:1:pos:R:3:forces:R:3 energy=-0.24545473 stress="0.0010401095037623957 7.48981095105991e-11 -0.0 7.48981095105991e-11 0.0010401092478605216 0.0 -0.0 0.0 0.0010401096223510691" free_energy=-0.24545473 pbc="T T T"
P        0.00000000       0.00000000       0.00000000       0.00000000      -0.00000000      -0.00000000
1
Lattice="4.70732936 -1e-08 2.71777802 1.5691101 4.43811216 2.71777802 0.0 -0.0 5.43555605" Properties=species:S:1:pos:R:3:forces:R:3 energy=-0.2523162 stress="0.001143244213041509 8.113961863648236e-11 0.0 8.113961863648236e-11 0.0011432439446566166 -0.0 0.0 -0.0 0.0011432443378716914" free_energy=-0.2523162 pbc="T T T"
P        0.00000000       0.00000000       0.00000000       0.00000000       0.00000000      -0.00000000
1
Lattice="4.53601491 -2e-08 2.61886956 1.51200526 4.27659539 2.61886956 0.0 -0.0 5.23773912" Properties=species:S:1:pos:R:3:forces:R:3 energy=-0.26709542 stress="0.0013375378545531203 8.738112776236562e-11 0.0 8.738112776236562e-11 0.0013375375674437005 -0.0 0.0 -0.0 0.0013375379918663213" free_energy=-0.26709544 pbc="T T T"
P        0.00000000       0.00000000       0.00000000       0.00000000       0.00000000      -0.00000000
1
Lattice="4.19338599 -5e-08 2.42105263 1.39779558 3.95356187 2.42105263 0.0 -0.0 4.84210526" Properties=species:S:1:pos:R:3:forces:R:3 energy=-0.29765464 stress="0.0014364700121830662 7.48981095105991e-11 -0.0 7.48981095105991e-11 0.0014364697625227013 -0.0 -0.0 -0.0 0.0014364701245302308" free_energy=-0.297663 pbc="T T T"
P        0.00000000       0.00000000       0.00000000      -0.00000000      -0.00000000       0.00000000
1
Lattice="3.50812816 -1e-07 2.02541877 1.16937621 3.30749482 2.02541877 0.0 -0.0 4.05083754" Properties=species:S:1:pos:R:3:forces:R:3 energy=-0.62018178 stress="0.055095963212796875 1.0173659875189711e-09 -0.0 1.0173659875189711e-09 0.055095959779966855 -0.0 -0.0 -0.0 0.0550959648043817" free_energy=-0.64287767 pbc="T T T"
P        0.00000000       0.00000000       0.00000000       0.00000000      -0.00000000      -0.00000000
1
Lattice="2.13761251 -2e-07 1.23415105 0.71253747 2.01536071 1.23415105 0.0 -0.0 2.4683021" Properties=species:S:1:pos:R:3:forces:R:3 energy=-2.35960593 stress="-0.3988539647276321 4.419612612037935e-08 -0.0 4.419612612037935e-08 -0.39885411416808514 0.0 -0.0 0.0 -0.39885389525339404" free_energy=-2.36521118 pbc="T T T"
P        0.00000000       0.00000000       0.00000000      -0.00000000       0.00000000       0.00000000
1
Lattice="2.98855597 -1.3e-07 1.72544357 0.9961854 2.81763763 1.72544357 0.0 -0.0 3.45088715" Properties=species:S:1:pos:R:3:forces:R:3 energy=-1.94897737 stress="0.09217514988220206 -1.5291697358413982e-09 -0.0 -1.5291697358413982e-09 0.09217515506265464 -0.0 -0.0 -0.0 0.09217514747922104" free_energy=-1.96612006 pbc="T T T"
P        0.00000000       0.00000000       0.00000000      -0.00000000       0.00000000      -0.00000000
1
Lattice="2.56308424 -1.7e-07 1.47979731 0.85436144 2.41649917 1.47979731 0.0 -0.0 2.95959462" Properties=species:S:1:pos:R:3:forces:R:3 energy=-2.90914722 stress="0.0653232016690778 -3.6512828386417062e-09 -0.0 -3.6512828386417062e-09 0.06532321401478286 0.0 -0.0 0.0 0.06532319592688941" free_energy=-2.92522579 pbc="T T T"
P        0.00000000       0.00000000       0.00000000      -0.00000000       0.00000000      -0.00000000
1
Lattice="2.35034838 -1.8e-07 1.35697418 0.78344945 2.21592994 1.35697418 0.0 -0.0 2.71394836" Properties=species:S:1:pos:R:3:forces:R:3 energy=-3.02813261 stress="-0.04817424789375631 3.894701694551153e-09 -0.0 3.894701694551153e-09 -0.04817426106958208 -0.0 -0.0 -0.0 -0.04817424177083586" free_energy=-3.03414257 pbc="T T T"
P        0.00000000       0.00000000       0.00000000       0.00000000       0.00000000      -0.00000000
1
Lattice="2.42746827 -1.8e-07 1.40149938 0.80915609 2.28863925 1.40149938 0.0 -0.0 2.80299876" Properties=species:S:1:pos:R:3:forces:R:3 energy=-3.04430112 stress="0.014891973756355542 -1.061056551400154e-09 0.0 -1.061056551400154e-09 0.014891977345223288 0.0 0.0 0.0 0.014891972089872604" free_energy=-3.05231063 pbc="T T T"
P        0.00000000       0.00000000       0.00000000      -0.00000000       0.00000000       0.00000000
1
Lattice="2.40787624 -1.8e-07 1.39018791 0.80262541 2.27016771 1.39018791 0.0 -0.0 2.78037582" Properties=species:S:1:pos:R:3:forces:R:3 energy=-3.04871457 stress="0.0015922835578053645 -1.1858867339178193e-10 -0.0 -1.1858867339178193e-10 0.0015922839572619486 -0.0 -0.0 -0.0 0.0015922833768015998" free_energy=-3.05584652 pbc="T T T"
P        0.00000000       0.00000000       0.00000000      -0.00000000       0.00000000       0.00000000
1
Lattice="2.40567186 -1.8e-07 1.38891521 0.80189062 2.2680894 1.38891521 0.0 -0.0 2.77783043" Properties=species:S:1:pos:R:3:forces:R:3 energy=-3.0488726 stress="-2.1147094246751854e-05 0.0 -0.0 0.0 -2.1147100488260975e-05 0.0 -0.0 0.0 -2.1147094246751854e-05" free_energy=-3.05592708 pbc="T T T"
P        0.00000000       0.00000000       0.00000000      -0.00000000      -0.00000000       0.00000000
