1
Lattice="20.0 0.0 0.0 0.0 20.0 0.0 0.0 0.0 20.0" Properties=species:S:1:pos:R:3:forces:R:3 energy=-0.17580124 stress="5.240620722456619e-07 -0.0 0.0 -0.0 5.240620722456619e-07 -0.0 0.0 -0.0 5.240620722456619e-07" free_energy=-0.17580124 pbc="T T T"
P       10.00000000      10.00000000      10.00000000       0.00000000       0.00000000       0.00000000
